TITLE = "B00042"
VARIABLES = "position", "position(2)", "Vx", "Vy"
ZONE T="Frame 0", I=75, J=50
-39.780598 81.882996 -8.393054 -1.387787
-37.303990 81.882996 4.419554 6.636436
-34.827382 81.882996 3.465515 6.661815
-32.350774 81.882996 -12.215697 0.768280
-29.874166 81.882996 -11.680874 0.728064
-27.397558 81.882996 -10.934399 -0.946759
-24.920950 81.882996 -11.878254 -1.622272
-22.444342 81.882996 -12.078980 -1.491912
-19.967734 81.882996 -12.475381 0.449805
-17.491125 81.882996 -13.043847 -0.225852
-15.014517 81.882996 -12.702160 -1.476832
-12.537909 81.882996 -12.987113 -1.220420
-10.061301 81.882996 -12.876625 -0.550118
-7.584693 81.882996 -11.275300 -0.852524
-5.108085 81.882996 -12.895176 -1.150251
-2.631477 81.882996 -13.652135 -0.574124
-0.154869 81.882996 -13.383617 -1.659369
2.321739 81.882996 -13.405996 -0.321480
4.798347 81.882996 -13.565083 -0.265429
7.274955 81.882996 -13.895086 -1.294938
9.751563 81.882996 -13.241380 0.151872
12.228171 81.882996 -13.712816 -0.378155
14.704779 81.882996 -13.355270 -0.126091
17.181387 81.882996 -12.007155 1.195321
19.657995 81.882996 -12.181411 1.008970
22.134603 81.882996 -13.921726 1.310098
24.611211 81.882996 -13.855847 1.692947
27.087819 81.882996 -12.715890 1.382201
29.564427 81.882996 -13.028728 0.749142
32.041035 81.882996 -12.514918 1.448415
34.517643 81.882996 -12.377778 1.400744
36.994251 81.882996 -13.372089 0.837458
39.470859 81.882996 -13.604270 1.669864
41.947467 81.882996 -12.859610 2.939817
44.424075 81.882996 -13.087042 2.313617
46.900684 81.882996 -13.448172 1.959072
49.377292 81.882996 -13.404492 1.764961
51.853900 81.882996 -12.567247 0.874487
54.330508 81.882996 -13.595132 0.364762
56.807116 81.882996 -14.202381 -0.191291
59.283724 81.882996 -13.055254 0.251849
61.760332 81.882996 -12.936517 1.080932
64.236940 81.882996 -13.982204 0.946936
66.713548 81.882996 -13.820625 1.161544
69.190156 81.882996 -13.246603 1.652053
71.666764 81.882996 -13.166531 2.515223
74.143372 81.882996 -13.313343 3.285441
76.619980 81.882996 -13.580681 2.751084
79.096588 81.882996 -13.216925 0.553611
81.573196 81.882996 -12.939930 1.266756
84.049804 81.882996 -13.578728 1.752515
86.526412 81.882996 -11.701355 2.878522
89.003020 81.882996 -10.915914 3.522109
91.479628 81.882996 -10.169176 3.263448
93.956236 81.882996 -11.852738 2.142825
96.432844 81.882996 -11.429697 1.723312
98.909452 81.882996 -10.575278 1.620918
101.386060 81.882996 0.000000 0.000000
103.862668 81.882996 -3.668867 19.939611
106.339276 81.882996 -10.193436 1.615990
108.815884 81.882996 -10.290929 2.059346
111.292493 81.882996 -11.723559 2.035704
113.769101 81.882996 -11.531425 1.409399
116.245709 81.882996 4.009771 -10.634681
118.722317 81.882996 2.712805 -8.324431
121.198925 81.882996 -11.808119 0.482155
123.675533 81.882996 -11.761777 -0.897246
126.152141 81.882996 -12.164969 -1.525751
128.628749 81.882996 -11.579849 0.562511
131.105357 81.882996 -11.459322 1.593261
133.581965 81.882996 -11.648580 1.527671
136.058573 81.882996 -11.563218 0.922309
138.535181 81.882996 -11.442175 -0.116630
141.011789 81.882996 -11.798348 -0.361691
143.488397 81.882996 -12.826252 0.086140
-39.780598 79.406388 -9.439364 -1.768728
-37.303990 79.406388 -9.314841 -2.217442
-34.827382 79.406388 -13.017385 -0.030611
-32.350774 79.406388 -12.245019 0.435209
-29.874166 79.406388 -12.141409 0.774830
-27.397558 79.406388 -12.545464 0.575194
-24.920950 79.406388 -11.083106 -0.196145
-22.444342 79.406388 -12.410040 -0.527463
-19.967734 79.406388 -13.214347 -0.937213
-17.491125 79.406388 -13.090975 -0.532614
-15.014517 79.406388 -13.106774 0.038547
-12.537909 79.406388 -13.325518 -0.787681
-10.061301 79.406388 -13.276079 -0.861982
-7.584693 79.406388 -11.882671 0.667028
-5.108085 79.406388 -12.693954 -0.127008
-2.631477 79.406388 -14.574253 -1.051223
-0.154869 79.406388 -14.074380 -1.331338
2.321739 79.406388 -12.644296 -0.953833
4.798347 79.406388 -13.583808 -0.946898
7.274955 79.406388 -13.893310 -1.095451
9.751563 79.406388 -12.785536 -0.445409
12.228171 79.406388 -13.126254 -0.229733
14.704779 79.406388 -12.995215 0.387984
17.181387 79.406388 -12.128277 1.006480
19.657995 79.406388 -10.727364 1.078823
22.134603 79.406388 -12.003888 1.007297
24.611211 79.406388 -13.289386 1.263778
27.087819 79.406388 -12.810081 1.022470
29.564427 79.406388 -12.467806 -0.458513
32.041035 79.406388 -12.826095 0.497104
34.517643 79.406388 -13.359646 1.557377
36.994251 79.406388 -12.751377 0.663197
39.470859 79.406388 -12.044810 1.321615
41.947467 79.406388 -12.426573 2.477385
44.424075 79.406388 -13.374330 1.742423
46.900684 79.406388 -13.277972 1.357401
49.377292 79.406388 -13.365454 0.483583
51.853900 79.406388 -13.333222 0.262397
54.330508 79.406388 -13.990735 0.703159
56.807116 79.406388 -14.125632 0.465957
59.283724 79.406388 -13.897891 0.517751
61.760332 79.406388 -13.472134 0.189801
64.236940 79.406388 -13.578967 0.585036
66.713548 79.406388 -12.995683 2.132781
69.190156 79.406388 -12.757566 1.907563
71.666764 79.406388 -12.754886 2.445798
74.143372 79.406388 -12.327440 2.662819
76.619980 79.406388 -12.490169 1.444545
79.096588 79.406388 -13.043693 0.749731
81.573196 79.406388 -12.963528 1.191242
84.049804 79.406388 -13.306250 1.530173
86.526412 79.406388 -11.989116 1.506456
89.003020 79.406388 -11.701621 2.468816
91.479628 79.406388 -9.936775 3.075469
93.956236 79.406388 2.960391 13.621337
96.432844 79.406388 -12.788172 2.917923
98.909452 79.406388 -11.313338 1.854819
101.386060 79.406388 -10.879245 -0.079008
103.862668 79.406388 -8.956638 -0.143901
106.339276 79.406388 -9.850259 1.276296
108.815884 79.406388 -10.653494 1.993115
111.292493 79.406388 -10.550179 1.170852
113.769101 79.406388 -11.624726 0.941976
116.245709 79.406388 -0.475506 8.088970
118.722317 79.406388 0.173409 6.858917
121.198925 79.406388 -11.587366 1.025222
123.675533 79.406388 -11.250819 0.893910
126.152141 79.406388 -11.421028 0.404208
128.628749 79.406388 -11.047724 1.084665
131.105357 79.406388 -11.697129 1.484372
133.581965 79.406388 -11.329381 1.629389
136.058573 79.406388 -11.581904 0.378335
138.535181 79.406388 -12.491889 -0.255317
141.011789 79.406388 -12.429481 0.339563
143.488397 79.406388 -12.631735 0.366063
-39.780598 76.929780 -13.660254 -1.582405
-37.303990 76.929780 -12.649277 -2.260976
-34.827382 76.929780 -11.889553 -1.011975
-32.350774 76.929780 -11.943666 0.589553
-29.874166 76.929780 -12.836348 0.597989
-27.397558 76.929780 -13.469357 0.536310
-24.920950 76.929780 -11.571485 -0.495165
-22.444342 76.929780 -12.596071 -0.531045
-19.967734 76.929780 -13.503199 -0.609383
-17.491125 76.929780 -13.399634 -0.322226
-15.014517 76.929780 -13.380989 0.515258
-12.537909 76.929780 -14.111127 -0.451922
-10.061301 76.929780 -13.381596 -0.530126
-7.584693 76.929780 -13.253150 0.584689
-5.108085 76.929780 -12.994505 0.424324
-2.631477 76.929780 -14.697321 -0.061281
-0.154869 76.929780 -14.309237 -0.276086
2.321739 76.929780 -12.441938 -1.516586
4.798347 76.929780 -13.965999 -0.934046
7.274955 76.929780 -13.652167 0.308824
9.751563 76.929780 -11.992366 1.066377
12.228171 76.929780 -13.261052 0.835633
14.704779 76.929780 -14.008101 -0.185462
17.181387 76.929780 -13.792820 -0.171363
19.657995 76.929780 -12.198101 0.232504
22.134603 76.929780 -11.822947 0.328354
24.611211 76.929780 -12.678245 1.007085
27.087819 76.929780 -13.363293 0.971251
29.564427 76.929780 -12.324594 0.414379
32.041035 76.929780 -11.973741 1.283488
34.517643 76.929780 -13.486589 1.929515
36.994251 76.929780 -12.950933 0.342407
39.470859 76.929780 -11.694045 -0.515323
41.947467 76.929780 -12.181892 1.206635
44.424075 76.929780 -13.127229 1.368890
46.900684 76.929780 -13.643266 0.977067
49.377292 76.929780 -13.555866 1.076346
51.853900 76.929780 -13.882976 1.869441
54.330508 76.929780 -14.321664 1.549381
56.807116 76.929780 -13.821457 0.933248
59.283724 76.929780 -13.312677 1.318761
61.760332 76.929780 -12.445603 1.087011
64.236940 76.929780 -12.187040 0.837945
66.713548 76.929780 -12.288996 2.156839
69.190156 76.929780 -12.779709 2.040953
71.666764 76.929780 -12.405132 0.605376
74.143372 76.929780 -12.531445 0.508639
76.619980 76.929780 -12.496414 0.922411
79.096588 76.929780 -12.515488 0.672283
81.573196 76.929780 -12.683916 1.120202
84.049804 76.929780 -12.789129 2.179374
86.526412 76.929780 -12.352596 1.478348
89.003020 76.929780 -12.182000 1.466476
91.479628 76.929780 -10.742355 1.401635
93.956236 76.929780 3.237519 12.937427
96.432844 76.929780 -14.236073 2.140390
98.909452 76.929780 -11.523181 -0.211864
101.386060 76.929780 -10.507361 1.011400
103.862668 76.929780 -11.147990 1.727444
106.339276 76.929780 -11.869698 1.137343
108.815884 76.929780 -12.167715 2.193455
111.292493 76.929780 -10.892207 1.889165
113.769101 76.929780 -11.103303 1.394340
116.245709 76.929780 -11.518246 0.801448
118.722317 76.929780 -0.964746 5.655968
121.198925 76.929780 -6.702092 21.652479
123.675533 76.929780 -10.136513 0.910175
126.152141 76.929780 -11.817454 0.725452
128.628749 76.929780 -11.703615 0.075117
131.105357 76.929780 -11.489557 0.611028
133.581965 76.929780 -11.370867 1.218509
136.058573 76.929780 -11.898903 -0.055254
138.535181 76.929780 -13.122348 -0.552275
141.011789 76.929780 -13.727101 1.768431
143.488397 76.929780 -13.271006 0.928356
-39.780598 74.453172 -13.653748 -1.452429
-37.303990 74.453172 -13.830074 -2.317994
-34.827382 74.453172 -12.089905 -2.053494
-32.350774 74.453172 -12.268354 -1.011175
-29.874166 74.453172 -12.585199 -1.164139
-27.397558 74.453172 -13.421782 -1.180783
-24.920950 74.453172 -12.113086 -0.941929
-22.444342 74.453172 4.771396 -10.317335
-19.967734 74.453172 -12.910217 0.222958
-17.491125 74.453172 -13.132667 -0.776933
-15.014517 74.453172 -12.965615 -1.266384
-12.537909 74.453172 -12.954463 -1.299406
-10.061301 74.453172 -12.604116 -0.448834
-7.584693 74.453172 -12.796451 -0.634863
-5.108085 74.453172 -13.387957 -0.495450
-2.631477 74.453172 -13.781495 0.154681
-0.154869 74.453172 -12.650999 -0.954005
2.321739 74.453172 -11.541777 -2.072451
4.798347 74.453172 -13.809398 -1.099107
7.274955 74.453172 -13.789776 -0.043873
9.751563 74.453172 -12.542911 1.252561
12.228171 74.453172 -13.720989 0.924817
14.704779 74.453172 -13.706091 0.556372
17.181387 74.453172 -13.707217 0.480719
19.657995 74.453172 -14.217228 -0.511660
22.134603 74.453172 -12.409427 -0.161403
24.611211 74.453172 -11.965063 0.158504
27.087819 74.453172 -12.695824 -0.001878
29.564427 74.453172 -12.635870 1.182054
32.041035 74.453172 -12.786892 1.587769
34.517643 74.453172 -13.869811 0.840111
36.994251 74.453172 -13.937768 0.192015
39.470859 74.453172 -13.366812 -0.288785
41.947467 74.453172 -13.173765 0.597872
44.424075 74.453172 -12.631909 1.090630
46.900684 74.453172 -11.992599 1.865457
49.377292 74.453172 -12.620977 2.289151
51.853900 74.453172 -13.989934 2.189704
54.330508 74.453172 -14.415468 2.231891
56.807116 74.453172 -13.954331 2.061576
59.283724 74.453172 -12.972645 2.064786
61.760332 74.453172 -11.877782 1.621226
64.236940 74.453172 -12.396810 1.646630
66.713548 74.453172 -12.331474 2.338322
69.190156 74.453172 -12.781407 1.906259
71.666764 74.453172 -12.851909 0.186683
74.143372 74.453172 -12.929307 0.222681
76.619980 74.453172 -12.512648 1.287609
79.096588 74.453172 -12.770777 0.740082
81.573196 74.453172 -12.752746 0.940963
84.049804 74.453172 -11.024867 1.360136
86.526412 74.453172 -11.608297 1.235855
89.003020 74.453172 -12.598200 1.683882
91.479628 74.453172 -10.906750 1.499045
93.956236 74.453172 -6.992363 1.806108
96.432844 74.453172 -12.962592 0.053144
98.909452 74.453172 -12.304421 1.488203
101.386060 74.453172 -11.417457 3.003391
103.862668 74.453172 0.000000 0.000000
106.339276 74.453172 -12.516764 2.286618
108.815884 74.453172 -12.501092 1.547673
111.292493 74.453172 -11.362548 0.033067
113.769101 74.453172 -9.993885 1.395193
116.245709 74.453172 -11.039488 0.607863
118.722317 74.453172 -1.399114 1.912530
121.198925 74.453172 -2.755103 6.510249
123.675533 74.453172 -11.885087 0.617439
126.152141 74.453172 -12.270894 -0.261373
128.628749 74.453172 -12.209158 -0.166684
131.105357 74.453172 -10.169779 0.128544
133.581965 74.453172 -8.940776 -0.297517
136.058573 74.453172 -11.350075 -0.083128
138.535181 74.453172 -12.493579 0.224138
141.011789 74.453172 -12.658836 1.193399
143.488397 74.453172 -13.167444 1.177309
-39.780598 71.976564 -11.371204 -0.972705
-37.303990 71.976564 -11.788573 -1.406549
-34.827382 71.976564 -12.750471 -1.817782
-32.350774 71.976564 -13.426335 -1.207017
-29.874166 71.976564 -12.954590 -1.559313
-27.397558 71.976564 -12.783025 -1.028284
-24.920950 71.976564 -13.541611 0.879812
-22.444342 71.976564 -13.653268 0.998912
-19.967734 71.976564 -12.416159 -0.608819
-17.491125 71.976564 -12.547997 -1.508682
-15.014517 71.976564 -13.157859 -1.317275
-12.537909 71.976564 -12.219016 -1.577019
-10.061301 71.976564 -12.814087 -1.464139
-7.584693 71.976564 -13.191200 -1.394428
-5.108085 71.976564 -13.762954 -0.705184
-2.631477 71.976564 -12.968481 -0.642248
-0.154869 71.976564 -12.465597 -1.550348
2.321739 71.976564 -11.897240 -0.892807
4.798347 71.976564 -12.632204 0.128304
7.274955 71.976564 -13.051310 0.070699
9.751563 71.976564 -13.295194 0.517715
12.228171 71.976564 -13.115838 0.441666
14.704779 71.976564 -12.234613 0.999773
17.181387 71.976564 -12.366792 0.846532
19.657995 71.976564 -13.286416 -0.686299
22.134603 71.976564 -13.015086 -0.205082
24.611211 71.976564 -12.367366 -0.264704
27.087819 71.976564 -13.649902 -0.932065
29.564427 71.976564 -14.265854 0.889561
32.041035 71.976564 -13.369585 0.768265
34.517643 71.976564 -13.656427 0.252741
36.994251 71.976564 -14.598054 1.246286
39.470859 71.976564 -14.065327 1.698619
41.947467 71.976564 -13.162733 0.538797
44.424075 71.976564 -12.644756 0.267357
46.900684 71.976564 -12.184442 1.502786
49.377292 71.976564 -12.107474 1.999782
51.853900 71.976564 -13.180998 2.635637
54.330508 71.976564 -12.965243 2.852570
56.807116 71.976564 -13.363852 2.479889
59.283724 71.976564 -13.268071 2.434044
61.760332 71.976564 -12.902045 1.440491
64.236940 71.976564 -13.286624 1.409845
66.713548 71.976564 -12.806090 1.764792
69.190156 71.976564 -11.885816 1.826558
71.666764 71.976564 -13.124359 1.032193
74.143372 71.976564 -13.145099 0.532380
76.619980 71.976564 -12.605666 1.562350
79.096588 71.976564 -12.834970 1.202376
81.573196 71.976564 -12.842509 1.814471
84.049804 71.976564 -10.901505 2.328923
86.526412 71.976564 -11.712009 1.022065
89.003020 71.976564 -12.059500 0.443597
91.479628 71.976564 -10.475394 0.337382
93.956236 71.976564 3.221533 9.935134
96.432844 71.976564 -11.526485 2.421182
98.909452 71.976564 -12.235846 2.403256
101.386060 71.976564 -11.611097 2.631483
103.862668 71.976564 8.932952 21.845201
106.339276 71.976564 -13.116742 1.479379
108.815884 71.976564 -12.652006 1.070299
111.292493 71.976564 -10.742801 0.396086
113.769101 71.976564 -9.702568 0.812730
116.245709 71.976564 -10.221136 0.672859
118.722317 71.976564 -4.440334 19.206308
121.198925 71.976564 -0.354597 1.691090
123.675533 71.976564 -12.029064 1.092565
126.152141 71.976564 -11.780032 -0.343832
128.628749 71.976564 -11.800648 -0.564315
131.105357 71.976564 -10.962328 -0.944285
133.581965 71.976564 -8.879015 -0.355905
136.058573 71.976564 -10.536668 0.897780
138.535181 71.976564 -11.668944 1.155899
141.011789 71.976564 -11.968509 0.808369
143.488397 71.976564 -11.355110 -0.530361
-39.780598 69.499956 -11.549578 -2.211809
-37.303990 69.499956 -12.403385 -1.637453
-34.827382 69.499956 -12.816073 -1.312171
-32.350774 69.499956 -14.119122 -0.644520
-29.874166 69.499956 -13.300368 -0.454907
-27.397558 69.499956 -12.606411 -0.588683
-24.920950 69.499956 -13.489261 0.268898
-22.444342 69.499956 -13.949079 0.229695
-19.967734 69.499956 -12.684484 -1.202669
-17.491125 69.499956 -12.502768 -1.242126
-15.014517 69.499956 -13.198877 -1.193186
-12.537909 69.499956 -13.638817 -1.982334
-10.061301 69.499956 -12.833771 -1.812855
-7.584693 69.499956 -12.271387 -1.946676
-5.108085 69.499956 -13.241904 -1.945708
-2.631477 69.499956 -12.266349 -1.363688
-0.154869 69.499956 -12.530119 -1.125467
2.321739 69.499956 -12.453576 -0.584300
4.798347 69.499956 -13.207946 0.617325
7.274955 69.499956 -13.026358 1.012723
9.751563 69.499956 -13.925698 0.285463
12.228171 69.499956 -13.933301 0.122405
14.704779 69.499956 -12.393779 0.258155
17.181387 69.499956 -12.458928 1.491358
19.657995 69.499956 -13.213434 1.373283
22.134603 69.499956 -14.274640 0.119863
24.611211 69.499956 -13.091303 0.659975
27.087819 69.499956 -13.531936 0.321097
29.564427 69.499956 -14.362437 0.373519
32.041035 69.499956 -13.128590 0.634395
34.517643 69.499956 -13.222027 0.703143
36.994251 69.499956 -12.469366 1.681734
39.470859 69.499956 -12.127771 2.366928
41.947467 69.499956 -11.886380 0.101497
44.424075 69.499956 -13.004564 0.273634
46.900684 69.499956 -12.690647 1.595042
49.377292 69.499956 -12.090446 1.888867
51.853900 69.499956 -12.410099 1.734714
54.330508 69.499956 -12.590241 0.871135
56.807116 69.499956 -13.193802 1.187444
59.283724 69.499956 -13.198220 1.428962
61.760332 69.499956 -12.383392 1.540165
64.236940 69.499956 -12.524475 1.751336
66.713548 69.499956 -12.719550 1.771720
69.190156 69.499956 -11.733524 1.964388
71.666764 69.499956 -12.706175 1.291656
74.143372 69.499956 -13.644595 1.161802
76.619980 69.499956 -13.521484 2.417511
79.096588 69.499956 -12.966872 2.081780
81.573196 69.499956 -12.740173 1.802702
84.049804 69.499956 -12.792853 2.056282
86.526412 69.499956 -13.090456 1.510085
89.003020 69.499956 -11.919832 1.511938
91.479628 69.499956 -11.502187 1.434269
93.956236 69.499956 -4.507148 4.770894
96.432844 69.499956 -9.866668 3.524957
98.909452 69.499956 -11.758164 2.793293
101.386060 69.499956 -11.665313 2.268460
103.862668 69.499956 -9.869376 1.514908
106.339276 69.499956 -13.712913 -0.103703
108.815884 69.499956 -12.523173 1.864357
111.292493 69.499956 -11.454573 2.017031
113.769101 69.499956 -11.074524 -0.039412
116.245709 69.499956 -10.722162 0.123579
118.722317 69.499956 3.336292 -13.540497
121.198925 69.499956 0.866777 1.240240
123.675533 69.499956 -3.169382 1.066742
126.152141 69.499956 -12.377913 -0.517123
128.628749 69.499956 -12.619150 -0.406656
131.105357 69.499956 -11.503936 -0.236313
133.581965 69.499956 -10.215046 -0.171015
136.058573 69.499956 -10.867728 0.783901
138.535181 69.499956 -10.689622 1.512429
141.011789 69.499956 -11.277382 0.593458
143.488397 69.499956 -10.352760 -1.265459
-39.780598 67.023347 -13.052629 -1.881001
-37.303990 67.023347 -13.313880 -1.424973
-34.827382 67.023347 -12.849533 -1.606833
-32.350774 67.023347 -14.024006 -2.340528
-29.874166 67.023347 -13.513627 -2.268480
-27.397558 67.023347 -12.876365 -1.502995
-24.920950 67.023347 -13.370831 -1.020135
-22.444342 67.023347 -13.350333 -1.081441
-19.967734 67.023347 -12.950222 -1.488387
-17.491125 67.023347 -12.435230 -0.757965
-15.014517 67.023347 -13.310770 -1.053141
-12.537909 67.023347 -14.259416 -1.833891
-10.061301 67.023347 -13.264903 -1.697695
-7.584693 67.023347 -13.448433 -2.414125
-5.108085 67.023347 -13.174727 -1.856447
-2.631477 67.023347 -11.651952 -0.688842
-0.154869 67.023347 -13.145700 -0.645935
2.321739 67.023347 -12.420976 -0.045058
4.798347 67.023347 -13.214299 0.567192
7.274955 67.023347 -13.723797 1.282878
9.751563 67.023347 -13.929024 0.962362
12.228171 67.023347 -13.797011 -0.109018
14.704779 67.023347 -12.733175 -0.015694
17.181387 67.023347 -12.555262 2.100533
19.657995 67.023347 -13.225285 1.797021
22.134603 67.023347 -13.935811 0.823657
24.611211 67.023347 -12.984302 1.754133
27.087819 67.023347 -12.315625 0.623932
29.564427 67.023347 -12.539423 -0.410183
32.041035 67.023347 -13.102287 0.157428
34.517643 67.023347 -13.873499 0.190462
36.994251 67.023347 -12.987077 0.687186
39.470859 67.023347 -12.304594 1.564979
41.947467 67.023347 -12.972800 1.274137
44.424075 67.023347 -12.684200 0.908830
46.900684 67.023347 -11.497950 2.014018
49.377292 67.023347 -12.114867 1.744249
51.853900 67.023347 -12.899273 1.266152
54.330508 67.023347 -13.863064 2.387255
56.807116 67.023347 -13.553099 3.345406
59.283724 67.023347 -12.649341 2.586424
61.760332 67.023347 -12.156989 1.543791
64.236940 67.023347 -11.482368 1.959449
66.713548 67.023347 -12.042280 1.985023
69.190156 67.023347 -12.812292 1.769815
71.666764 67.023347 -12.504279 1.877179
74.143372 67.023347 -13.301665 1.860809
76.619980 67.023347 -13.286050 2.308342
79.096588 67.023347 -12.331096 1.116641
81.573196 67.023347 -12.248065 0.777516
84.049804 67.023347 -12.804928 1.926323
86.526412 67.023347 -11.590105 1.995066
89.003020 67.023347 -11.169676 2.073762
91.479628 67.023347 -12.102726 2.448536
93.956236 67.023347 -8.685409 2.897487
96.432844 67.023347 -9.900062 2.096962
98.909452 67.023347 -12.581098 1.967486
101.386060 67.023347 -12.907969 2.664473
103.862668 67.023347 -9.776881 1.210768
106.339276 67.023347 -10.826455 0.916212
108.815884 67.023347 -11.769217 2.950404
111.292493 67.023347 -12.200626 2.566477
113.769101 67.023347 -11.932361 -0.130765
116.245709 67.023347 -11.049109 -1.603959
118.722317 67.023347 -3.351118 20.845689
121.198925 67.023347 1.449007 0.021188
123.675533 67.023347 1.138566 -1.503457
126.152141 67.023347 -11.332387 0.007402
128.628749 67.023347 -11.603035 1.178590
131.105357 67.023347 -11.142022 0.723022
133.581965 67.023347 -10.920934 0.086204
136.058573 67.023347 -10.488003 0.533224
138.535181 67.023347 -10.830441 0.416591
141.011789 67.023347 -11.191459 0.028571
143.488397 67.023347 -11.487017 -0.382391
-39.780598 64.546739 -13.412873 -3.015345
-37.303990 64.546739 -12.886267 -0.755015
-34.827382 64.546739 -13.226185 -0.973765
-32.350774 64.546739 -13.303601 -2.612076
-29.874166 64.546739 -12.930190 -2.473546
-27.397558 64.546739 -12.567293 -0.909063
-24.920950 64.546739 -13.356133 -0.799012
-22.444342 64.546739 -13.143241 -1.474812
-19.967734 64.546739 -13.082277 -1.624036
-17.491125 64.546739 -12.710415 -1.209378
-15.014517 64.546739 -12.718077 -1.490177
-12.537909 64.546739 -13.784489 -1.725092
-10.061301 64.546739 -13.946823 -1.913881
-7.584693 64.546739 -15.033790 -1.138559
-5.108085 64.546739 -13.484111 1.033819
-2.631477 64.546739 -12.965489 0.550016
-0.154869 64.546739 -13.763983 -0.611605
2.321739 64.546739 -13.049382 0.022506
4.798347 64.546739 -12.913264 -1.062009
7.274955 64.546739 -13.048054 -0.107278
9.751563 64.546739 -13.185207 1.110551
12.228171 64.546739 -13.771918 0.457631
14.704779 64.546739 -13.319059 0.907355
17.181387 64.546739 -12.711670 1.140708
19.657995 64.546739 -13.299185 0.752927
22.134603 64.546739 -13.568312 0.696610
24.611211 64.546739 -13.750121 0.090641
27.087819 64.546739 -13.124109 -0.409121
29.564427 64.546739 -12.604707 -0.039561
32.041035 64.546739 -13.181474 0.516472
34.517643 64.546739 -14.278531 1.156050
36.994251 64.546739 -13.470523 1.571194
39.470859 64.546739 -13.226017 1.449323
41.947467 64.546739 -13.527988 1.310615
44.424075 64.546739 -12.982054 1.146585
46.900684 64.546739 -13.083026 2.232553
49.377292 64.546739 -13.447560 1.255402
51.853900 64.546739 -12.589401 0.627597
54.330508 64.546739 -13.019462 2.045794
56.807116 64.546739 -13.587841 3.009487
59.283724 64.546739 -13.337374 2.851779
61.760332 64.546739 -13.314118 1.239463
64.236940 64.546739 -10.987475 1.210858
66.713548 64.546739 -11.887097 1.920777
69.190156 64.546739 -13.331161 2.353477
71.666764 64.546739 -11.526207 2.809346
74.143372 64.546739 -12.466048 2.670647
76.619980 64.546739 -13.042712 2.520783
79.096588 64.546739 -12.035613 1.300952
81.573196 64.546739 -11.889212 0.756993
84.049804 64.546739 -11.762258 1.656080
86.526412 64.546739 -10.072235 2.351456
89.003020 64.546739 -10.463874 2.255527
91.479628 64.546739 -11.471106 2.511814
93.956236 64.546739 -8.503100 2.393451
96.432844 64.546739 -11.138199 1.224371
98.909452 64.546739 -12.372959 0.606604
101.386060 64.546739 -12.007331 0.060502
103.862668 64.546739 -7.405775 0.274531
106.339276 64.546739 -10.874386 1.931946
108.815884 64.546739 -11.352934 2.641168
111.292493 64.546739 -10.880904 2.506643
113.769101 64.546739 -10.542283 1.452145
116.245709 64.546739 -9.568903 -0.237750
118.722317 64.546739 -8.691244 -0.138389
121.198925 64.546739 -0.028973 -1.582130
123.675533 64.546739 3.147375 -11.124312
126.152141 64.546739 -9.980452 0.520851
128.628749 64.546739 -10.155645 1.653932
131.105357 64.546739 -10.734675 1.201999
133.581965 64.546739 -11.026923 -0.048111
136.058573 64.546739 -10.656721 0.284592
138.535181 64.546739 -10.866353 0.549577
141.011789 64.546739 -11.987808 1.004337
143.488397 64.546739 -12.024264 0.630924
-39.780598 62.070131 -12.583555 -2.120968
-37.303990 62.070131 -12.337411 0.016710
-34.827382 62.070131 -12.935428 -1.154469
-32.350774 62.070131 -12.981018 -1.550467
-29.874166 62.070131 -12.666172 -0.236767
-27.397558 62.070131 -12.676434 -0.558437
-24.920950 62.070131 -12.757525 -1.361492
-22.444342 62.070131 -12.516157 -0.720203
-19.967734 62.070131 -12.772530 1.262394
-17.491125 62.070131 -10.953221 0.757623
-15.014517 62.070131 -10.879148 -2.745661
-12.537909 62.070131 -12.792898 -2.219766
-10.061301 62.070131 -13.293433 -1.467832
-7.584693 62.070131 -14.113202 -1.138329
-5.108085 62.070131 -12.645628 -1.006778
-2.631477 62.070131 -12.800552 -1.810621
-0.154869 62.070131 -13.801679 -1.420361
2.321739 62.070131 -15.126279 -0.503800
4.798347 62.070131 -13.042798 -1.125367
7.274955 62.070131 -12.104349 -0.200806
9.751563 62.070131 -13.017756 1.095318
12.228171 62.070131 -15.240833 1.520884
14.704779 62.070131 -14.593023 0.712016
17.181387 62.070131 -12.902427 0.473235
19.657995 62.070131 -13.382711 1.737788
22.134603 62.070131 -14.057228 1.955114
24.611211 62.070131 -14.178918 0.773927
27.087819 62.070131 -13.808956 0.790538
29.564427 62.070131 -12.846850 1.374879
32.041035 62.070131 -12.564298 1.631901
34.517643 62.070131 -12.803904 1.359642
36.994251 62.070131 -12.830683 2.105137
39.470859 62.070131 -13.953996 2.597620
41.947467 62.070131 -13.948054 1.573715
44.424075 62.070131 -14.089355 0.403258
46.900684 62.070131 -13.444448 1.120330
49.377292 62.070131 -12.938751 1.676445
51.853900 62.070131 -11.985920 0.989753
54.330508 62.070131 -12.088402 1.125983
56.807116 62.070131 -13.221683 2.649067
59.283724 62.070131 -13.175239 2.617376
61.760332 62.070131 -12.617977 2.157776
64.236940 62.070131 -10.991630 2.642321
66.713548 62.070131 -11.943873 2.463887
69.190156 62.070131 -13.357166 2.117938
71.666764 62.070131 -12.208764 2.105869
74.143372 62.070131 -12.527022 3.033817
76.619980 62.070131 -13.339650 3.102952
79.096588 62.070131 -12.805318 1.145536
81.573196 62.070131 -12.046120 0.313757
84.049804 62.070131 -10.978927 2.012805
86.526412 62.070131 -10.811312 2.897143
89.003020 62.070131 -11.389717 2.374193
91.479628 62.070131 -11.704795 2.409165
93.956236 62.070131 -7.793067 2.479971
96.432844 62.070131 5.183181 -18.726792
98.909452 62.070131 -11.479560 1.813443
101.386060 62.070131 -9.600577 0.333528
103.862668 62.070131 -9.066853 -0.222006
106.339276 62.070131 0.000000 0.000000
108.815884 62.070131 -9.950444 2.740448
111.292493 62.070131 -10.449191 2.005946
113.769101 62.070131 -9.926291 1.897039
116.245709 62.070131 -9.086873 1.298061
118.722317 62.070131 -9.057005 1.371696
121.198925 62.070131 0.654623 -3.246614
123.675533 62.070131 -0.487202 6.541666
126.152141 62.070131 -9.975576 1.893395
128.628749 62.070131 -9.784583 0.821036
131.105357 62.070131 -10.586508 0.822381
133.581965 62.070131 -10.355716 -0.175932
136.058573 62.070131 -10.722453 0.013996
138.535181 62.070131 -10.828507 1.361357
141.011789 62.070131 -11.957579 1.767530
143.488397 62.070131 -11.855617 1.364725
-39.780598 59.593523 3.782409 7.238732
-37.303990 59.593523 -9.906046 -0.299394
-34.827382 59.593523 -11.801330 -0.662983
-32.350774 59.593523 -13.185849 -0.091450
-29.874166 59.593523 -12.501019 -0.650998
-27.397558 59.593523 -12.333264 -2.608467
-24.920950 59.593523 -12.970039 -2.623542
-22.444342 59.593523 -13.307153 -0.737541
-19.967734 59.593523 -11.437552 0.964393
-17.491125 59.593523 -10.053923 -1.893698
-15.014517 59.593523 -11.282316 -2.493904
-12.537909 59.593523 -13.636059 -2.184163
-10.061301 59.593523 -14.610831 -0.901783
-7.584693 59.593523 -13.820600 -0.228497
-5.108085 59.593523 -13.684695 -1.120542
-2.631477 59.593523 -13.593918 -1.634313
-0.154869 59.593523 -13.777143 -1.756334
2.321739 59.593523 -14.524406 -0.306518
4.798347 59.593523 -12.864058 0.201866
7.274955 59.593523 -12.364327 -0.524594
9.751563 59.593523 -13.148672 -0.246383
12.228171 59.593523 -16.108434 0.342187
14.704779 59.593523 -14.952870 0.380877
17.181387 59.593523 -13.076803 0.909468
19.657995 59.593523 -12.999937 2.354216
22.134603 59.593523 -13.488119 3.027221
24.611211 59.593523 -12.981043 2.387446
27.087819 59.593523 -13.442316 1.853702
29.564427 59.593523 -13.285563 2.020833
32.041035 59.593523 -12.405899 2.120073
34.517643 59.593523 -12.457943 1.584075
36.994251 59.593523 -13.726789 1.898500
39.470859 59.593523 -13.911429 2.505311
41.947467 59.593523 -13.807517 2.003481
44.424075 59.593523 -13.796639 1.002048
46.900684 59.593523 -13.750370 0.783675
49.377292 59.593523 -13.326345 1.943084
51.853900 59.593523 -13.172517 2.918290
54.330508 59.593523 -13.040392 2.219714
56.807116 59.593523 -12.863995 2.677246
59.283724 59.593523 -12.865446 2.582883
61.760332 59.593523 -13.178028 2.966160
64.236940 59.593523 -13.641434 3.626249
66.713548 59.593523 -13.245596 3.178369
69.190156 59.593523 -13.171690 2.229284
71.666764 59.593523 -13.002447 2.948959
74.143372 59.593523 -12.376338 3.394199
76.619980 59.593523 -12.392082 2.364160
79.096588 59.593523 -12.370637 0.989970
81.573196 59.593523 -12.353792 0.703704
84.049804 59.593523 -12.235543 2.590331
86.526412 59.593523 -10.918146 3.319777
89.003020 59.593523 -11.423139 2.285125
91.479628 59.593523 -11.605048 1.634832
93.956236 59.593523 -9.656750 1.757643
96.432844 59.593523 5.530428 -18.161207
98.909452 59.593523 -11.058918 2.033384
101.386060 59.593523 -9.534869 1.144726
103.862668 59.593523 -10.247765 0.905945
106.339276 59.593523 11.492654 11.323843
108.815884 59.593523 -10.260086 3.529700
111.292493 59.593523 -10.883924 2.312108