TITLE = "B00024"
VARIABLES = "position", "position(2)", "Vx", "Vy"
ZONE T="Frame 0", I=75, J=50
-39.780598 81.882996 -10.496323 -3.898710
-37.303990 81.882996 2.023175 -16.816072
-34.827382 81.882996 -3.497596 -16.046498
-32.350774 81.882996 -7.809514 -13.880686
-29.874166 81.882996 -13.915263 0.071527
-27.397558 81.882996 -13.544017 0.431843
-24.920950 81.882996 -11.968736 0.351630
-22.444342 81.882996 -13.286258 0.774315
-19.967734 81.882996 -13.133106 0.195071
-17.491125 81.882996 -13.421426 0.124083
-15.014517 81.882996 -14.536981 0.010422
-12.537909 81.882996 -14.017147 -0.934705
-10.061301 81.882996 -12.925440 -1.240098
-7.584693 81.882996 -12.705607 -0.989242
-5.108085 81.882996 -12.969291 -1.395551
-2.631477 81.882996 -13.569343 -0.995563
-0.154869 81.882996 -12.810762 -1.170176
2.321739 81.882996 -12.255984 -0.150257
4.798347 81.882996 -13.901939 0.103553
7.274955 81.882996 -13.705799 0.634416
9.751563 81.882996 -12.769477 1.145317
12.228171 81.882996 -12.871708 0.017595
14.704779 81.882996 -12.978519 -0.294296
17.181387 81.882996 -13.477132 0.537326
19.657995 81.882996 -13.720228 0.404963
22.134603 81.882996 -12.962248 -0.103143
24.611211 81.882996 -12.867129 -0.451998
27.087819 81.882996 -13.700164 0.191041
29.564427 81.882996 -14.339281 0.407336
32.041035 81.882996 -14.591765 0.080308
34.517643 81.882996 -13.540975 0.798598
36.994251 81.882996 -13.155913 1.894362
39.470859 81.882996 -12.683082 1.484236
41.947467 81.882996 -12.150643 0.319174
44.424075 81.882996 -11.283996 0.039295
46.900684 81.882996 -13.296247 0.382301
49.377292 81.882996 -13.415262 1.764945
51.853900 81.882996 -12.780505 1.849406
54.330508 81.882996 -13.334580 0.879969
56.807116 81.882996 -13.617909 1.587163
59.283724 81.882996 -13.204261 1.670574
61.760332 81.882996 -11.456859 0.846758
64.236940 81.882996 -11.738128 -0.349702
66.713548 81.882996 -12.467730 -0.111351
69.190156 81.882996 -13.225510 1.221988
71.666764 81.882996 -12.753013 1.955727
74.143372 81.882996 -12.392285 1.152731
76.619980 81.882996 -12.056303 1.307486
79.096588 81.882996 -12.125273 2.421367
81.573196 81.882996 -11.656124 2.007131
84.049804 81.882996 -10.936468 0.952289
86.526412 81.882996 -13.695021 0.197677
89.003020 81.882996 -13.710644 -0.189434
91.479628 81.882996 5.400571 3.409941
93.956236 81.882996 0.000000 0.000000
96.432844 81.882996 -13.950039 1.915205
98.909452 81.882996 -13.721434 1.858600
101.386060 81.882996 -12.867291 3.340001
103.862668 81.882996 -10.979487 1.142888
106.339276 81.882996 -12.326337 0.379226
108.815884 81.882996 -11.100497 0.355248
111.292493 81.882996 -10.546527 0.436388
113.769101 81.882996 -11.079733 0.119344
116.245709 81.882996 -3.475274 12.428659
118.722317 81.882996 2.162054 -13.543002
121.198925 81.882996 -11.626916 0.174001
123.675533 81.882996 -12.028342 0.555919
126.152141 81.882996 -13.230291 0.893551
128.628749 81.882996 -12.987848 1.899708
131.105357 81.882996 -12.397226 1.031041
133.581965 81.882996 -12.435966 -0.818693
136.058573 81.882996 -11.144700 0.226215
138.535181 81.882996 -10.892916 0.869251
141.011789 81.882996 -12.390002 -0.921474
143.488397 81.882996 -13.313651 -0.844794
-39.780598 79.406388 9.079568 5.876621
-37.303990 79.406388 -10.530952 -1.958386
-34.827382 79.406388 -12.702444 -0.061850
-32.350774 79.406388 -10.822375 -2.311808
-29.874166 79.406388 -12.719735 -1.810601
-27.397558 79.406388 -14.118512 -0.415174
-24.920950 79.406388 -13.060130 0.326460
-22.444342 79.406388 -13.575573 -0.059150
-19.967734 79.406388 -13.345283 -0.981999
-17.491125 79.406388 -13.089814 0.140874
-15.014517 79.406388 -14.247998 0.425821
-12.537909 79.406388 -14.972313 -0.501536
-10.061301 79.406388 -13.179842 -0.705434
-7.584693 79.406388 -12.499590 -1.008417
-5.108085 79.406388 -13.275247 -0.872235
-2.631477 79.406388 -14.111405 -0.446457
-0.154869 79.406388 -14.040167 -1.332206
2.321739 79.406388 -13.475431 -0.972113
4.798347 79.406388 -14.498537 0.457770
7.274955 79.406388 -13.866814 0.192886
9.751563 79.406388 -13.859327 0.417041
12.228171 79.406388 -13.639774 0.722875
14.704779 79.406388 -13.226832 1.059017
17.181387 79.406388 -13.462065 0.888633
19.657995 79.406388 -13.319240 0.655750
22.134603 79.406388 -11.702694 0.421761
24.611211 79.406388 -12.994271 -0.173066
27.087819 79.406388 -14.219451 0.730873
29.564427 79.406388 -14.042900 1.034065
32.041035 79.406388 -14.351708 0.447980
34.517643 79.406388 -13.770113 0.929930
36.994251 79.406388 -12.965031 0.977619
39.470859 79.406388 -12.301283 1.507491
41.947467 79.406388 -12.344183 1.065338
44.424075 79.406388 -12.319717 -0.189465
46.900684 79.406388 -14.016178 0.417229
49.377292 79.406388 -14.136996 0.505377
51.853900 79.406388 -13.539723 1.032393
54.330508 79.406388 -13.043897 1.623944
56.807116 79.406388 -13.209513 1.894159
59.283724 79.406388 -12.995339 1.028511
61.760332 79.406388 -12.755148 -0.090943
64.236940 79.406388 -13.171896 -0.286731
66.713548 79.406388 -12.887351 0.870072
69.190156 79.406388 -12.840546 2.235509
71.666764 79.406388 -13.392431 1.816768
74.143372 79.406388 -13.463194 1.159037
76.619980 79.406388 -12.350972 1.528547
79.096588 79.406388 -12.114021 2.541384
81.573196 79.406388 -11.902376 2.503068
84.049804 79.406388 -12.427268 0.953329
86.526412 79.406388 -13.264809 0.550639
89.003020 79.406388 -12.575489 1.280467
91.479628 79.406388 -9.724459 1.698659
93.956236 79.406388 0.000000 0.000000
96.432844 79.406388 -13.334904 3.264778
98.909452 79.406388 -13.553473 1.480679
101.386060 79.406388 -12.990699 1.442261
103.862668 79.406388 -8.683598 0.940844
106.339276 79.406388 -11.528627 0.505211
108.815884 79.406388 -12.449876 -0.061998
111.292493 79.406388 -11.464075 0.632379
113.769101 79.406388 -11.491885 1.965561
116.245709 79.406388 -12.416283 -0.529358
118.722317 79.406388 0.837987 -10.116410
121.198925 79.406388 -11.078255 1.678114
123.675533 79.406388 -9.288771 1.175986
126.152141 79.406388 -11.464736 0.187226
128.628749 79.406388 -11.122257 0.144984
131.105357 79.406388 -9.315169 2.223296
133.581965 79.406388 -11.546850 0.310637
136.058573 79.406388 -11.606574 0.929023
138.535181 79.406388 -10.906474 0.741512
141.011789 79.406388 -12.327361 -0.188396
143.488397 79.406388 -12.584710 0.092880
-39.780598 76.929780 -14.811383 -1.611590
-37.303990 76.929780 -12.949028 0.154964
-34.827382 76.929780 -13.719449 -0.330088
-32.350774 76.929780 -12.259224 -1.975339
-29.874166 76.929780 -12.576486 -1.483318
-27.397558 76.929780 -13.588045 -0.092020
-24.920950 76.929780 -13.105856 -0.076044
-22.444342 76.929780 -13.294672 -0.731016
-19.967734 76.929780 -13.038651 -1.123075
-17.491125 76.929780 -12.415862 -0.237478
-15.014517 76.929780 -13.430988 -0.079579
-12.537909 76.929780 -13.788859 -0.406736
-10.061301 76.929780 -13.538765 0.024744
-7.584693 76.929780 -13.014780 -1.146271
-5.108085 76.929780 -13.566959 -0.602801
-2.631477 76.929780 -14.622421 0.068055
-0.154869 76.929780 -14.087401 -0.578411
2.321739 76.929780 -13.442298 -0.633301
4.798347 76.929780 -14.090350 0.121426
7.274955 76.929780 -13.551878 0.158472
9.751563 76.929780 -13.963198 0.651756
12.228171 76.929780 -13.148021 1.476733
14.704779 76.929780 -12.860721 0.794762
17.181387 76.929780 -13.090700 0.276801
19.657995 76.929780 -12.611255 1.061337
22.134603 76.929780 -11.942645 0.435947
24.611211 76.929780 -12.626958 -0.528078
27.087819 76.929780 -14.407674 -0.082945
29.564427 76.929780 -14.132289 0.667368
32.041035 76.929780 -13.540534 0.540987
34.517643 76.929780 -12.765104 0.646226
36.994251 76.929780 -12.262820 0.339092
39.470859 76.929780 -11.939416 0.694777
41.947467 76.929780 -12.272091 1.533298
44.424075 76.929780 -13.060231 0.598422
46.900684 76.929780 -13.662976 0.658564
49.377292 76.929780 -13.422846 0.990336
51.853900 76.929780 -13.234093 0.788041
54.330508 76.929780 -13.005322 0.958153
56.807116 76.929780 -12.435604 1.377227
59.283724 76.929780 -12.407580 1.563931
61.760332 76.929780 -13.691755 0.431526
64.236940 76.929780 -14.468283 0.238623
66.713548 76.929780 -13.165040 1.258968
69.190156 76.929780 -12.314909 1.864672
71.666764 76.929780 -12.431832 2.035278
74.143372 76.929780 -12.956083 1.816149
76.619980 76.929780 -12.119913 2.159086
79.096588 76.929780 -12.722551 2.324808
81.573196 76.929780 -13.024292 2.177157
84.049804 76.929780 -13.085379 0.828494
86.526412 76.929780 -12.972407 0.601149
89.003020 76.929780 -12.264926 1.842117
91.479628 76.929780 -10.869259 2.234854
93.956236 76.929780 0.000000 0.000000
96.432844 76.929780 -12.949137 3.456450
98.909452 76.929780 -13.531215 1.570089
101.386060 76.929780 -12.981102 2.756342
103.862668 76.929780 -9.371423 1.368885
106.339276 76.929780 -11.809825 1.464723
108.815884 76.929780 -12.590055 1.282720
111.292493 76.929780 -11.589742 0.924072
113.769101 76.929780 -11.932645 1.994514
116.245709 76.929780 -13.178572 1.428263
118.722317 76.929780 2.424090 -9.503090
121.198925 76.929780 0.843722 -10.042689
123.675533 76.929780 -10.484616 1.275062
126.152141 76.929780 -10.945517 -0.459277
128.628749 76.929780 -11.471869 -1.164615
131.105357 76.929780 -10.732819 1.776527
133.581965 76.929780 -10.929159 2.252186
136.058573 76.929780 -11.135958 1.178793
138.535181 76.929780 -10.671645 1.542822
141.011789 76.929780 -11.977982 1.668685
143.488397 76.929780 -11.860119 1.252959
-39.780598 74.453172 -13.317450 -0.333954
-37.303990 74.453172 -11.875616 -1.167116
-34.827382 74.453172 -13.874466 -0.899266
-32.350774 74.453172 -13.981192 -2.031330
-29.874166 74.453172 -13.690259 -1.141586
-27.397558 74.453172 -13.825111 0.295363
-24.920950 74.453172 -13.002661 -0.004116
-22.444342 74.453172 -13.157352 -0.157097
-19.967734 74.453172 -12.878947 0.113540
-17.491125 74.453172 -12.736798 -0.183946
-15.014517 74.453172 -12.463883 -0.327437
-12.537909 74.453172 -13.024340 0.147272
-10.061301 74.453172 -13.890429 0.308607
-7.584693 74.453172 -14.525480 -1.096291
-5.108085 74.453172 -14.113137 -1.428093
-2.631477 74.453172 -13.817105 -0.477247
-0.154869 74.453172 -13.409156 0.272600
2.321739 74.453172 -13.980855 0.252999
4.798347 74.453172 -12.986575 -0.005931
7.274955 74.453172 -12.213089 0.911325
9.751563 74.453172 -13.068106 1.176462
12.228171 74.453172 -13.082420 1.041141
14.704779 74.453172 -12.761291 0.422602
17.181387 74.453172 -12.569303 0.578169
19.657995 74.453172 -12.620661 1.512052
22.134603 74.453172 -12.046629 0.686778
24.611211 74.453172 -11.342895 -0.643464
27.087819 74.453172 -12.450182 -0.616492
29.564427 74.453172 -13.697141 0.318262
32.041035 74.453172 -13.463265 0.415350
34.517643 74.453172 -12.192446 0.539211
36.994251 74.453172 -13.255557 0.795220
39.470859 74.453172 -13.680134 -0.467088
41.947467 74.453172 -12.353375 0.978246
44.424075 74.453172 -12.175763 0.934184
46.900684 74.453172 -12.698326 0.389399
49.377292 74.453172 -13.077094 1.681030
51.853900 74.453172 -12.922169 2.475131
54.330508 74.453172 -11.627459 1.690457
56.807116 74.453172 -12.428605 1.213956
59.283724 74.453172 -13.709852 1.712418
61.760332 74.453172 -14.499284 1.680279
64.236940 74.453172 -14.025465 0.816719
66.713548 74.453172 -13.223099 0.329886
69.190156 74.453172 -12.739667 0.702745
71.666764 74.453172 -10.913367 2.235444
74.143372 74.453172 -12.424973 1.391114
76.619980 74.453172 -13.598500 1.903649
79.096588 74.453172 -13.458409 2.809130
81.573196 74.453172 -13.247199 2.627593
84.049804 74.453172 -12.065272 1.179640
86.526412 74.453172 -11.434988 1.008809
89.003020 74.453172 -12.558791 1.723534
91.479628 74.453172 -11.597070 1.969748
93.956236 74.453172 -10.380443 2.499311
96.432844 74.453172 -12.197496 2.436835
98.909452 74.453172 -11.971319 2.534103
101.386060 74.453172 -11.686602 2.341165
103.862668 74.453172 0.000000 0.000000
106.339276 74.453172 -12.989171 0.543982
108.815884 74.453172 -12.122510 0.995452
111.292493 74.453172 -10.987368 1.110809
113.769101 74.453172 -12.070684 0.420321
116.245709 74.453172 -12.185542 0.608260
118.722317 74.453172 -0.782617 4.985679
121.198925 74.453172 -2.307378 8.142430
123.675533 74.453172 -11.863246 1.119485
126.152141 74.453172 -11.572671 1.135892
128.628749 74.453172 -11.705526 0.179518
131.105357 74.453172 -11.731324 0.492678
133.581965 74.453172 -11.415744 0.056695
136.058573 74.453172 -10.469150 0.374075
138.535181 74.453172 -11.259794 0.918552
141.011789 74.453172 -11.830068 1.370208
143.488397 74.453172 -11.215580 1.649209
-39.780598 71.976564 -11.772378 -2.159759
-37.303990 71.976564 -12.375453 -2.053318
-34.827382 71.976564 -14.144796 -1.464047
-32.350774 71.976564 -13.858285 -0.966636
-29.874166 71.976564 -14.174069 -1.713819
-27.397558 71.976564 -14.372750 -2.144809
-24.920950 71.976564 -13.444166 -1.412058
-22.444342 71.976564 -13.227898 -1.198019
-19.967734 71.976564 -12.186906 -0.995502
-17.491125 71.976564 -12.390444 -1.190562
-15.014517 71.976564 -12.340887 -0.516144
-12.537909 71.976564 -13.281079 -0.698352
-10.061301 71.976564 -13.839674 -1.475655
-7.584693 71.976564 -13.909626 -1.731441
-5.108085 71.976564 -14.313950 -1.466072
-2.631477 71.976564 -13.787306 -0.285114
-0.154869 71.976564 -14.376636 -0.474118
2.321739 71.976564 -15.039837 -1.089801
4.798347 71.976564 -13.856773 -1.203886
7.274955 71.976564 -12.331437 -0.771557
9.751563 71.976564 -12.843391 0.166279
12.228171 71.976564 -12.974395 0.747346
14.704779 71.976564 -12.826333 0.755696
17.181387 71.976564 -12.623936 0.256977
19.657995 71.976564 -13.318164 0.043180
22.134603 71.976564 -12.598392 -0.254138
24.611211 71.976564 -12.050660 0.067365
27.087819 71.976564 -12.692590 0.531384
29.564427 71.976564 -13.296267 0.659792
32.041035 71.976564 -13.369059 1.222184
34.517643 71.976564 -12.525131 1.497501
36.994251 71.976564 -12.935416 0.980076
39.470859 71.976564 -13.464884 0.168655
41.947467 71.976564 -12.775495 1.094805
44.424075 71.976564 -12.578604 1.126889
46.900684 71.976564 -13.152840 0.403641
49.377292 71.976564 -13.670739 0.744960
51.853900 71.976564 -13.292511 0.689473
54.330508 71.976564 -13.024627 0.278092
56.807116 71.976564 -13.014141 -0.049380
59.283724 71.976564 -12.404423 -0.105241
61.760332 71.976564 -11.242526 0.311595
64.236940 71.976564 -12.659776 0.728023
66.713548 71.976564 -12.481005 0.584329
69.190156 71.976564 -12.303053 1.171450
71.666764 71.976564 -12.463670 1.271775
74.143372 71.976564 -12.638597 0.898032
76.619980 71.976564 -13.447145 2.676609
79.096588 71.976564 -13.063363 3.005813
81.573196 71.976564 -12.633161 2.216605
84.049804 71.976564 -12.187842 0.361457
86.526412 71.976564 -12.585387 0.913989
89.003020 71.976564 -11.981408 2.883018
91.479628 71.976564 -11.358444 2.948356
93.956236 71.976564 5.714401 6.969533
96.432844 71.976564 -10.913359 2.209210
98.909452 71.976564 -10.542227 2.084001
101.386060 71.976564 -10.534018 1.465917
103.862668 71.976564 -8.522660 0.380027
106.339276 71.976564 -12.421934 0.192144
108.815884 71.976564 -11.792874 1.704410
111.292493 71.976564 -11.278926 1.870518
113.769101 71.976564 -12.033400 0.168047
116.245709 71.976564 -11.412566 0.083882
118.722317 71.976564 -2.462267 6.912509
121.198925 71.976564 -3.379875 6.444318
123.675533 71.976564 -10.199179 -0.024462
126.152141 71.976564 -11.503616 1.735202
128.628749 71.976564 -12.055290 2.006507
131.105357 71.976564 -11.427360 -0.732054
133.581965 71.976564 -11.402326 -1.897036
136.058573 71.976564 -11.336904 -0.944997
138.535181 71.976564 -12.895385 0.853091
141.011789 71.976564 -11.685019 0.969478
143.488397 71.976564 -9.872528 1.050762
-39.780598 69.499956 -13.006869 -2.387618
-37.303990 69.499956 -12.677919 -2.257146
-34.827382 69.499956 -13.128906 -1.538003
-32.350774 69.499956 -12.392078 0.024146
-29.874166 69.499956 -13.499615 -0.467165
-27.397558 69.499956 -14.806932 -1.620048
-24.920950 69.499956 -14.360356 -0.845784
-22.444342 69.499956 -13.669650 -0.492104
-19.967734 69.499956 -12.498401 -0.746555
-17.491125 69.499956 -12.418478 -1.609543
-15.014517 69.499956 -13.159777 -1.097135
-12.537909 69.499956 -13.660975 -0.224763
-10.061301 69.499956 -14.055231 -0.469734
-7.584693 69.499956 -13.685396 -0.321599
-5.108085 69.499956 -13.254256 -0.356459
-2.631477 69.499956 -13.410859 0.052219
-0.154869 69.499956 -14.795581 -2.148783
2.321739 69.499956 -13.872245 -0.988865
4.798347 69.499956 -14.420119 -0.436638
7.274955 69.499956 -13.253771 0.014359
9.751563 69.499956 -12.576514 0.277525
12.228171 69.499956 -12.712537 0.775160
14.704779 69.499956 -13.623865 -0.005670
17.181387 69.499956 -12.764551 -0.726126
19.657995 69.499956 -12.795004 -0.287774
22.134603 69.499956 -13.609995 -0.478473
24.611211 69.499956 -13.640678 0.670296
27.087819 69.499956 -13.835703 1.362146
29.564427 69.499956 -13.716970 0.387178
32.041035 69.499956 -13.748709 1.300584
34.517643 69.499956 -13.135261 1.601688
36.994251 69.499956 -12.327479 -0.075535
39.470859 69.499956 -12.439263 0.658883
41.947467 69.499956 -13.031052 1.711705
44.424075 69.499956 -13.886694 1.637426
46.900684 69.499956 -14.104654 0.328071
49.377292 69.499956 -13.463355 -0.264280
51.853900 69.499956 -13.210039 -0.378672
54.330508 69.499956 -13.683692 1.275823
56.807116 69.499956 -13.376746 2.181399
59.283724 69.499956 -11.347676 0.987044
61.760332 69.499956 -11.172472 0.085766
64.236940 69.499956 -13.251452 0.447940
66.713548 69.499956 -13.165877 1.047108
69.190156 69.499956 -13.274646 1.183834
71.666764 69.499956 -12.818666 1.468661
74.143372 69.499956 -12.579937 2.158377
76.619980 69.499956 -11.858304 2.691450
79.096588 69.499956 -11.775649 2.251376
81.573196 69.499956 -10.401534 0.638248
84.049804 69.499956 -11.829447 0.025326
86.526412 69.499956 -13.041043 1.687364
89.003020 69.499956 -12.441231 2.040693
91.479628 69.499956 -11.670847 1.233775
93.956236 69.499956 3.024897 15.281065
96.432844 69.499956 -9.741462 2.724145
98.909452 69.499956 -10.932089 2.900053
101.386060 69.499956 -11.236446 2.147648
103.862668 69.499956 -8.737142 0.973328
106.339276 69.499956 6.780010 -15.707242
108.815884 69.499956 -12.778767 0.876847
111.292493 69.499956 -13.079691 1.274386
113.769101 69.499956 -11.392606 1.110553
116.245709 69.499956 -10.921467 1.510682
118.722317 69.499956 -11.155576 0.448318
121.198925 69.499956 -1.053537 2.957756
123.675533 69.499956 -3.404274 10.057784
126.152141 69.499956 -11.877828 1.099032
128.628749 69.499956 -12.449569 1.478062
131.105357 69.499956 -11.515211 0.920785
133.581965 69.499956 -11.350276 0.651850
136.058573 69.499956 -10.797347 0.505928
138.535181 69.499956 -12.546880 1.711561
141.011789 69.499956 -12.170126 1.644043
143.488397 69.499956 -10.715014 1.768261
-39.780598 67.023347 7.227076 12.556037
-37.303990 67.023347 -12.809669 -2.166462
-34.827382 67.023347 -12.531380 -0.478441
-32.350774 67.023347 -11.932892 -0.140673
-29.874166 67.023347 -13.329494 0.471510
-27.397558 67.023347 -13.780398 -0.000581
-24.920950 67.023347 -14.135017 -0.476287
-22.444342 67.023347 -14.492428 -0.159614
-19.967734 67.023347 -13.175358 -0.623955
-17.491125 67.023347 -12.714262 -1.017809
-15.014517 67.023347 -13.224161 -0.514060
-12.537909 67.023347 -12.929153 0.374048
-10.061301 67.023347 -13.890491 0.645680
-7.584693 67.023347 -13.922554 0.365685
-5.108085 67.023347 -13.266307 -0.513023
-2.631477 67.023347 -12.635864 -0.852996
-0.154869 67.023347 -12.730220 -0.190020
2.321739 67.023347 -12.671874 -0.002532
4.798347 67.023347 -14.724475 -0.563905
7.274955 67.023347 -13.112893 0.451030
9.751563 67.023347 -12.253993 0.715454
12.228171 67.023347 -13.666021 1.230632
14.704779 67.023347 -13.791941 0.829176
17.181387 67.023347 -12.882247 -0.359404
19.657995 67.023347 -12.769415 -0.443452
22.134603 67.023347 -13.523803 0.083262
24.611211 67.023347 -14.012956 1.124380
27.087819 67.023347 -12.929553 0.879373
29.564427 67.023347 -12.719134 0.657860
32.041035 67.023347 -13.795183 1.448037
34.517643 67.023347 -13.209863 1.705846
36.994251 67.023347 -12.871542 1.052365
39.470859 67.023347 -13.187896 1.724765
41.947467 67.023347 -13.055431 2.340482
44.424075 67.023347 -13.648195 1.449988
46.900684 67.023347 -13.343295 0.450284
49.377292 67.023347 -12.626508 0.260349
51.853900 67.023347 -12.726327 0.305334
54.330508 67.023347 -13.968811 1.954982
56.807116 67.023347 -12.426713 2.433320
59.283724 67.023347 -12.404411 2.537610
61.760332 67.023347 -13.388583 1.765588
64.236940 67.023347 -13.155196 0.924672
66.713548 67.023347 -13.457610 2.272394
69.190156 67.023347 -14.652943 2.495591
71.666764 67.023347 -14.016748 2.984597
74.143372 67.023347 -13.956029 3.221003
76.619980 67.023347 -12.700826 2.293935
79.096588 67.023347 -13.285236 1.503088
81.573196 67.023347 -10.014881 0.195972
84.049804 67.023347 -10.834817 0.156472
86.526412 67.023347 -12.663478 2.192830
89.003020 67.023347 -12.163651 1.896339
91.479628 67.023347 -11.834373 0.559405
93.956236 67.023347 -10.160698 0.095714
96.432844 67.023347 0.000000 0.000000
98.909452 67.023347 -12.100051 2.181399
101.386060 67.023347 -11.806763 1.560107
103.862668 67.023347 -11.168316 1.479438
106.339276 67.023347 7.025001 5.184680
108.815884 67.023347 -12.916627 2.035606
111.292493 67.023347 -12.910869 1.846607
113.769101 67.023347 -9.972293 2.187990
116.245709 67.023347 -9.190770 2.436523
118.722317 67.023347 -9.776839 1.045358
121.198925 67.023347 -3.984617 10.203533
123.675533 67.023347 -3.025747 8.447231
126.152141 67.023347 -11.195721 1.381625
128.628749 67.023347 -11.021906 1.604557
131.105357 67.023347 -11.074912 2.174102
133.581965 67.023347 -10.735134 1.592916
136.058573 67.023347 -10.861608 1.010147
138.535181 67.023347 -12.559684 2.053761
141.011789 67.023347 -13.073994 1.683199
143.488397 67.023347 -12.679538 1.305910
-39.780598 64.546739 5.067373 15.655383
-37.303990 64.546739 -11.411861 -0.310768
-34.827382 64.546739 -11.911722 -0.294759
-32.350774 64.546739 -12.554915 -0.470948
-29.874166 64.546739 -13.191309 0.998183
-27.397558 64.546739 -12.102020 0.417437
-24.920950 64.546739 -13.341625 -1.353401
-22.444342 64.546739 -13.872394 -0.086383
-19.967734 64.546739 -12.910940 -0.961071
-17.491125 64.546739 -12.263031 -1.202352
-15.014517 64.546739 -12.899415 -0.010497
-12.537909 64.546739 -12.944090 0.400366
-10.061301 64.546739 -13.765082 -0.338611
-7.584693 64.546739 -14.414799 -1.104117
-5.108085 64.546739 -14.552404 0.173025
-2.631477 64.546739 -13.957948 -0.423359
-0.154869 64.546739 -13.169309 -0.549711
2.321739 64.546739 -13.263389 0.062131
4.798347 64.546739 -14.620408 0.197823
7.274955 64.546739 -12.753322 -0.133888
9.751563 64.546739 -12.891769 0.239472
12.228171 64.546739 -13.876343 0.789682
14.704779 64.546739 -13.313840 0.651218
17.181387 64.546739 -13.919142 0.232302
19.657995 64.546739 -15.149482 0.143717
22.134603 64.546739 -14.031161 0.809977
24.611211 64.546739 -13.916744 1.106890
27.087819 64.546739 -12.990894 1.391065
29.564427 64.546739 -12.631852 0.769499
32.041035 64.546739 -13.960237 0.432584
34.517643 64.546739 -13.378571 0.237003
36.994251 64.546739 -13.843836 0.504322
39.470859 64.546739 -13.954056 1.628600
41.947467 64.546739 -12.326939 1.577959
44.424075 64.546739 -12.825994 1.081372
46.900684 64.546739 -12.693209 1.328292
49.377292 64.546739 -12.213881 1.223598
51.853900 64.546739 -12.639891 0.268524
54.330508 64.546739 -13.129004 0.342529
56.807116 64.546739 -11.606266 0.576991
59.283724 64.546739 -12.823246 1.167689
61.760332 64.546739 -13.228106 1.665402
64.236940 64.546739 -12.270521 1.802052
66.713548 64.546739 -12.884214 2.509283
69.190156 64.546739 -13.936388 2.752975
71.666764 64.546739 -14.525179 3.244707
74.143372 64.546739 -14.983314 3.178345
76.619980 64.546739 -14.013807 2.055546
79.096588 64.546739 -13.367041 1.666590
81.573196 64.546739 -11.815562 1.324717
84.049804 64.546739 -11.120199 2.296011
86.526412 64.546739 -12.459446 3.027796
89.003020 64.546739 -11.040709 2.372453
91.479628 64.546739 -11.779835 1.201759
93.956236 64.546739 -11.944756 1.665464
96.432844 64.546739 0.000000 0.000000
98.909452 64.546739 -13.150361 1.127490
101.386060 64.546739 -11.765369 0.803303
103.862668 64.546739 -11.415051 1.634490
106.339276 64.546739 8.117296 6.074119
108.815884 64.546739 -11.710798 2.090706
111.292493 64.546739 -12.034491 1.665546
113.769101 64.546739 -9.067692 0.941802
116.245709 64.546739 -9.602538 1.672786
118.722317 64.546739 -12.194927 1.559336
121.198925 64.546739 -2.103647 8.555291
123.675533 64.546739 -1.472500 6.991931
126.152141 64.546739 -12.117948 2.281086
128.628749 64.546739 -10.948236 1.752652
131.105357 64.546739 -10.889384 1.333802
133.581965 64.546739 -11.767694 1.915992
136.058573 64.546739 -12.353659 0.057818
138.535181 64.546739 -12.225180 -0.004531
141.011789 64.546739 -12.070927 0.920965
143.488397 64.546739 -11.832338 0.623726
-39.780598 62.070131 -10.708881 -1.126331
-37.303990 62.070131 -10.141591 -0.198267
-34.827382 62.070131 -11.441135 -1.355776
-32.350774 62.070131 -12.842315 -0.698227
-29.874166 62.070131 -13.768722 0.524239
-27.397558 62.070131 -14.238236 -0.373791
-24.920950 62.070131 -13.449579 -0.251350
-22.444342 62.070131 -12.311603 -0.449558
-19.967734 62.070131 -13.816856 -1.215846
-17.491125 62.070131 -12.288686 -0.183953
-15.014517 62.070131 -12.145993 0.174977
-12.537909 62.070131 -12.543683 0.276103
-10.061301 62.070131 -13.278264 0.719237
-7.584693 62.070131 -13.074746 0.669369
-5.108085 62.070131 -14.201286 -0.568702
-2.631477 62.070131 -14.171676 -0.733471
-0.154869 62.070131 -13.542639 -0.860638
2.321739 62.070131 -13.668282 -0.697099
4.798347 62.070131 -13.981532 0.249716
7.274955 62.070131 -12.768919 -0.694155
9.751563 62.070131 -13.199033 -0.051004
12.228171 62.070131 -14.380909 0.259169
14.704779 62.070131 -14.334371 0.238983
17.181387 62.070131 -14.562626 1.499608
19.657995 62.070131 -14.363567 1.768276
22.134603 62.070131 -13.467774 0.213231
24.611211 62.070131 -13.049723 0.411676
27.087819 62.070131 -13.110861 1.089101
29.564427 62.070131 -13.191987 0.502021
32.041035 62.070131 -14.274014 0.826252
34.517643 62.070131 -14.914500 0.165374
36.994251 62.070131 -14.968663 0.034231
39.470859 62.070131 -14.315957 0.872490
41.947467 62.070131 -12.387365 1.073693
44.424075 62.070131 -12.944299 1.237665
46.900684 62.070131 -12.985247 0.973173
49.377292 62.070131 -11.998760 0.529251
51.853900 62.070131 -13.112579 0.919429
54.330508 62.070131 -13.083610 1.370288
56.807116 62.070131 -12.780485 0.804811
59.283724 62.070131 -12.970452 0.287882
61.760332 62.070131 -12.323077 0.381256
64.236940 62.070131 -12.724631 1.819812
66.713548 62.070131 -13.984128 2.720005
69.190156 62.070131 -13.279728 2.199481
71.666764 62.070131 -13.435368 2.469677
74.143372 62.070131 -13.015780 2.007395
76.619980 62.070131 -13.058356 2.393481
79.096588 62.070131 -12.801865 2.957538
81.573196 62.070131 -12.456333 3.579382
84.049804 62.070131 -11.375828 3.738347
86.526412 62.070131 -12.392092 2.768700
89.003020 62.070131 -13.072001 0.093763
91.479628 62.070131 -12.946230 0.845506
93.956236 62.070131 -11.489501 2.135971
96.432844 62.070131 0.000000 0.000000
98.909452 62.070131 -11.947654 3.440322
101.386060 62.070131 -9.945511 2.905444
103.862668 62.070131 -9.797493 2.916010
106.339276 62.070131 0.000000 0.000000
108.815884 62.070131 -12.263636 0.576679
111.292493 62.070131 -11.368981 1.276205
113.769101 62.070131 -9.976129 1.320710
116.245709 62.070131 -11.668100 1.607382
118.722317 62.070131 -12.999700 1.275763
121.198925 62.070131 -4.620735 21.147438
123.675533 62.070131 -2.202723 5.852640
126.152141 62.070131 -11.441949 1.489063
128.628749 62.070131 -10.178256 0.716682
131.105357 62.070131 -10.845304 0.348769
133.581965 62.070131 -12.183818 1.511501
136.058573 62.070131 -12.392822 0.070763
138.535181 62.070131 -11.774592 -0.769309
141.011789 62.070131 -12.131197 1.803520
143.488397 62.070131 -11.939244 1.078539
-39.780598 59.593523 -12.656893 -3.347813
-37.303990 59.593523 -12.224514 -1.725292
-34.827382 59.593523 -13.212516 -1.008736
-32.350774 59.593523 -12.774530 -1.329127
-29.874166 59.593523 -13.552958 -1.728419
-27.397558 59.593523 -13.776820 -2.292897
-24.920950 59.593523 -12.963684 -1.078578
-22.444342 59.593523 -12.716950 -2.278368
-19.967734 59.593523 -14.182827 -1.726397
-17.491125 59.593523 -13.207057 -0.073564
-15.014517 59.593523 -13.272830 -0.623475
-12.537909 59.593523 -14.090738 -0.208105
-10.061301 59.593523 -13.203787 0.461682
-7.584693 59.593523 -12.130343 0.158371
-5.108085 59.593523 -14.033299 -2.203821
-2.631477 59.593523 -13.869868 -2.534991
-0.154869 59.593523 -12.819099 -2.243019
2.321739 59.593523 -12.440092 -1.198189
4.798347 59.593523 -12.960729 -0.288033
7.274955 59.593523 -12.973182 -0.675030
9.751563 59.593523 -13.081809 0.592341
12.228171 59.593523 -14.325123 1.053481
14.704779 59.593523 -14.673539 0.429421
17.181387 59.593523 -13.951518 1.705808
19.657995 59.593523 -13.207413 1.580646
22.134603 59.593523 -12.869265 -0.198162
24.611211 59.593523 -12.264039 0.357758
27.087819 59.593523 -13.029425 1.495287
29.564427 59.593523 -13.924255 0.495772
32.041035 59.593523 -13.814674 0.063723
34.517643 59.593523 -13.942580 0.279829
36.994251 59.593523 -13.736875 -0.027353
39.470859 59.593523 -14.402936 0.111335
41.947467 59.593523 -13.975678 -0.229831
44.424075 59.593523 -13.677743 0.341099
46.900684 59.593523 -12.661901 1.345931
49.377292 59.593523 -12.586025 -0.199997
51.853900 59.593523 -13.212599 1.399858
54.330508 59.593523 -13.190457 2.986167
56.807116 59.593523 -13.036202 3.279232
59.283724 59.593523 -13.418741 2.234001
61.760332 59.593523 -13.163512 1.418707
64.236940 59.593523 -14.848534 3.349545
66.713548 59.593523 -14.981757 3.984287
69.190156 59.593523 -13.497612 2.770829
71.666764 59.593523 -12.338847 3.107253
74.143372 59.593523 -10.669779 2.686509
76.619980 59.593523 -12.486240 2.459183
79.096588 59.593523 -13.304764 3.209737
81.573196 59.593523 -12.692338 2.840845
84.049804 59.593523 -12.296745 3.222278
86.526412 59.593523 -10.597327 1.542314
89.003020 59.593523 -12.756242 0.754899
91.479628 59.593523 -13.125203 3.113824
93.956236 59.593523 -3.839466 4.108028
96.432844 59.593523 0.000000 0.000000
98.909452 59.593523 -11.188004 2.994797
101.386060 59.593523 -8.745194 2.345475
103.862668 59.593523 -9.010709 1.646933
106.339276 59.593523 7.027652 5.789783
108.815884 59.593523 -11.909313 0.430501
111.292493 59.593523 -10.869081 1.090745