TITLE = "B00062"
VARIABLES = "position", "position(2)", "Vx", "Vy"
ZONE T="Frame 0", I=75, J=50
-39.780598 81.882996 -12.776947 0.335489
-37.303990 81.882996 -12.175641 -0.390339
-34.827382 81.882996 -12.564894 -0.706475
-32.350774 81.882996 -13.371713 -0.774611
-29.874166 81.882996 -12.782477 -0.798727
-27.397558 81.882996 -12.431808 -0.761359
-24.920950 81.882996 -11.345557 -0.695780
-22.444342 81.882996 -11.614847 -0.978014
-19.967734 81.882996 -11.702165 -0.805218
-17.491125 81.882996 -12.297567 -0.376878
-15.014517 81.882996 -12.418572 -1.067124
-12.537909 81.882996 -11.991978 -0.851728
-10.061301 81.882996 -12.316333 -0.272486
-7.584693 81.882996 -12.390633 -0.456324
-5.108085 81.882996 -12.248393 -0.663220
-2.631477 81.882996 -12.349514 -1.624393
-0.154869 81.882996 -12.601876 -1.215408
2.321739 81.882996 -12.965877 -0.570444
4.798347 81.882996 -11.886243 -0.260953
7.274955 81.882996 -12.173515 -0.556379
9.751563 81.882996 -12.864759 -1.491432
12.228171 81.882996 -12.612383 -1.117673
14.704779 81.882996 -12.434330 0.162274
17.181387 81.882996 -13.322927 -0.036477
19.657995 81.882996 -13.483482 -0.599360
22.134603 81.882996 -12.772120 -0.715340
24.611211 81.882996 -12.221149 -0.104859
27.087819 81.882996 -11.774787 -0.035834
29.564427 81.882996 -12.933219 -0.801247
32.041035 81.882996 -13.199478 -1.032654
34.517643 81.882996 -13.081128 -0.786053
36.994251 81.882996 -13.260946 -0.300462
39.470859 81.882996 -13.439012 -0.240520
41.947467 81.882996 -13.231167 -0.547303
44.424075 81.882996 -12.997104 -0.777544
46.900684 81.882996 -12.869154 -0.492187
49.377292 81.882996 -12.842428 -0.050185
51.853900 81.882996 -12.311523 -0.364202
54.330508 81.882996 -12.271077 -0.217019
56.807116 81.882996 -12.942640 0.116341
59.283724 81.882996 -13.265289 0.050436
61.760332 81.882996 -13.068598 0.462586
64.236940 81.882996 -12.664325 0.739336
66.713548 81.882996 -12.947226 0.418677
69.190156 81.882996 -12.848545 0.176762
71.666764 81.882996 -12.658898 0.563920
74.143372 81.882996 -12.539564 0.542838
76.619980 81.882996 -12.310568 1.299200
79.096588 81.882996 -12.613096 1.529441
81.573196 81.882996 -12.968372 0.866455
84.049804 81.882996 -12.418575 0.958928
86.526412 81.882996 -11.968762 0.923825
89.003020 81.882996 -12.393371 0.272397
91.479628 81.882996 -12.739875 0.238930
93.956236 81.882996 -12.884043 0.764086
96.432844 81.882996 -12.597750 0.706485
98.909452 81.882996 -12.143974 0.333064
101.386060 81.882996 -9.609981 0.058702
103.862668 81.882996 -12.747698 2.098786
106.339276 81.882996 -12.743488 2.041179
108.815884 81.882996 -12.338127 1.256749
111.292493 81.882996 -11.693575 1.246716
113.769101 81.882996 -12.291030 1.569918
116.245709 81.882996 -1.268121 11.951965
118.722317 81.882996 5.307794 -18.241334
121.198925 81.882996 -12.202432 0.672426
123.675533 81.882996 -12.353002 0.561410
126.152141 81.882996 -11.909242 0.818902
128.628749 81.882996 -12.388288 0.964110
131.105357 81.882996 -11.909084 0.911598
133.581965 81.882996 -12.383633 0.126992
136.058573 81.882996 -12.407838 1.261059
138.535181 81.882996 -12.087361 1.820303
141.011789 81.882996 -11.760864 1.168313
143.488397 81.882996 -12.407354 1.181622
-39.780598 79.406388 -11.823238 -1.163055
-37.303990 79.406388 -11.697053 -1.449335
-34.827382 79.406388 -12.305836 -0.757866
-32.350774 79.406388 -13.166627 -0.534516
-29.874166 79.406388 -12.562307 -0.841092
-27.397558 79.406388 -12.076349 -0.917458
-24.920950 79.406388 -11.794841 -0.156637
-22.444342 79.406388 -11.975847 -0.353665
-19.967734 79.406388 -12.055611 -1.452098
-17.491125 79.406388 -12.207436 -1.114303
-15.014517 79.406388 -12.463434 -1.000692
-12.537909 79.406388 -12.018937 -1.028950
-10.061301 79.406388 -12.256902 -1.013916
-7.584693 79.406388 -12.066767 -0.404893
-5.108085 79.406388 -12.188593 -0.509978
-2.631477 79.406388 -12.455710 -1.536172
-0.154869 79.406388 -12.991130 -0.928131
2.321739 79.406388 -13.091012 -0.339472
4.798347 79.406388 -12.417877 -0.714244
7.274955 79.406388 -12.542028 -1.349202
9.751563 79.406388 -12.868526 -1.714767
12.228171 79.406388 -13.023793 -0.892475
14.704779 79.406388 -12.675753 -0.360436
17.181387 79.406388 -12.931601 -0.543078
19.657995 79.406388 -13.066166 -0.935743
22.134603 79.406388 -12.623763 -0.590238
24.611211 79.406388 -12.348584 -0.326710
27.087819 79.406388 -12.528673 -0.809366
29.564427 79.406388 -12.922972 -0.663949
32.041035 79.406388 -12.971262 -0.543484
34.517643 79.406388 -13.006623 -0.828530
36.994251 79.406388 -13.140844 -0.312639
39.470859 79.406388 -13.250197 -0.151703
41.947467 79.406388 -13.074339 -0.482956
44.424075 79.406388 -13.113111 -0.403646
46.900684 79.406388 -13.137475 -0.370855
49.377292 79.406388 -12.978200 -0.186315
51.853900 79.406388 -12.511912 -0.175571
54.330508 79.406388 -13.019996 -0.484008
56.807116 79.406388 -13.228216 -0.223574
59.283724 79.406388 -13.062459 0.008657
61.760332 79.406388 -12.768465 0.073345
64.236940 79.406388 -12.270658 0.457758
66.713548 79.406388 -12.819253 0.325749
69.190156 79.406388 -12.840679 0.067321
71.666764 79.406388 -12.967742 0.472034
74.143372 79.406388 -13.093785 0.772094
76.619980 79.406388 -13.007376 0.886593
79.096588 79.406388 -12.904963 0.952500
81.573196 79.406388 -13.152674 0.901647
84.049804 79.406388 -12.891798 0.863815
86.526412 79.406388 -12.327987 0.820050
89.003020 79.406388 -12.310019 0.414629
91.479628 79.406388 -12.434507 0.461239
93.956236 79.406388 -12.592665 0.710206
96.432844 79.406388 -12.639217 0.683408
98.909452 79.406388 -12.122527 0.833677
101.386060 79.406388 -10.905295 1.028936
103.862668 79.406388 -11.861227 1.256801
106.339276 79.406388 -12.349287 1.263925
108.815884 79.406388 -12.307697 1.284394
111.292493 79.406388 -12.119672 1.419272
113.769101 79.406388 -12.327527 1.621744
116.245709 79.406388 -12.693107 1.393111
118.722317 79.406388 -11.035758 0.640682
121.198925 79.406388 -12.145152 0.928781
123.675533 79.406388 -12.534265 1.056074
126.152141 79.406388 -12.358047 0.591858
128.628749 79.406388 -12.582044 0.920326
131.105357 79.406388 -11.865976 1.509865
133.581965 79.406388 -12.094841 0.584893
136.058573 79.406388 -11.851586 0.474369
138.535181 79.406388 -11.753534 1.089681
141.011789 79.406388 -11.550645 0.611205
143.488397 79.406388 -11.879190 0.204536
-39.780598 76.929780 -11.947643 -2.082092
-37.303990 76.929780 -11.890279 -1.757334
-34.827382 76.929780 -11.310423 -0.517400
-32.350774 76.929780 -11.879152 0.113005
-29.874166 76.929780 -11.988679 0.160774
-27.397558 76.929780 -11.770661 0.222767
-24.920950 76.929780 -11.963140 0.015045
-22.444342 76.929780 -12.384645 -1.127056
-19.967734 76.929780 -12.508166 -1.685127
-17.491125 76.929780 -12.142743 -1.628110
-15.014517 76.929780 -12.248692 -0.991185
-12.537909 76.929780 -12.131704 -0.646581
-10.061301 76.929780 -11.950689 -1.257800
-7.584693 76.929780 -12.265935 -0.865407
-5.108085 76.929780 -12.227046 -0.867550
-2.631477 76.929780 -12.519937 -0.848968
-0.154869 76.929780 -12.927773 -0.559003
2.321739 76.929780 -12.997694 -0.836986
4.798347 76.929780 -12.464936 -1.220736
7.274955 76.929780 -12.166114 -0.887844
9.751563 76.929780 -12.991608 -0.654055
12.228171 76.929780 -13.038085 -0.952761
14.704779 76.929780 -12.942677 -0.979080
17.181387 76.929780 -12.955320 -1.165132
19.657995 76.929780 -13.033165 -0.782185
22.134603 76.929780 -13.079225 -0.262520
24.611211 76.929780 -12.777625 -0.366105
27.087819 76.929780 -13.068204 -0.747971
29.564427 76.929780 -12.948194 -0.511211
32.041035 76.929780 -13.015826 -0.796491
34.517643 76.929780 -12.918652 -0.915669
36.994251 76.929780 -12.941118 -0.351687
39.470859 76.929780 -12.878258 -0.283107
41.947467 76.929780 -12.773996 -0.197132
44.424075 76.929780 -12.949666 -0.030326
46.900684 76.929780 -13.124954 -0.018544
49.377292 76.929780 -13.165097 -0.071577
51.853900 76.929780 -12.907862 -0.025524
54.330508 76.929780 -13.350614 -0.415578
56.807116 76.929780 -13.142619 -0.372992
59.283724 76.929780 -12.743122 -0.223026
61.760332 76.929780 -12.911847 -0.526010
64.236940 76.929780 -13.033724 0.213368
66.713548 76.929780 -13.268901 0.531501
69.190156 76.929780 -13.309842 -0.051413
71.666764 76.929780 -13.495035 0.540988
74.143372 76.929780 -13.583743 0.856849
76.619980 76.929780 -13.143605 0.580165
79.096588 76.929780 -12.816948 0.830828
81.573196 76.929780 -13.189578 0.701525
84.049804 76.929780 -13.050830 0.594112
86.526412 76.929780 -12.451328 1.105242
89.003020 76.929780 -12.689112 1.004364
91.479628 76.929780 -12.800433 0.712055
93.956236 76.929780 -12.872712 0.492259
96.432844 76.929780 -13.070795 0.531061
98.909452 76.929780 -12.339309 1.301448
101.386060 76.929780 -11.664472 1.669603
103.862668 76.929780 -12.048341 0.799807
106.339276 76.929780 -12.181527 0.768856
108.815884 76.929780 -11.975699 0.990102
111.292493 76.929780 -12.522505 1.369280
113.769101 76.929780 -12.364615 1.577531
116.245709 76.929780 -12.377159 1.354560
118.722317 76.929780 -11.778849 0.939490
121.198925 76.929780 -11.952383 0.899590
123.675533 76.929780 -12.412117 1.574727
126.152141 76.929780 -12.617219 1.429113
128.628749 76.929780 -12.613474 1.058858
131.105357 76.929780 -12.100147 1.924352
133.581965 76.929780 -11.919162 1.705620
136.058573 76.929780 -11.150931 0.509726
138.535181 76.929780 -11.039128 0.219371
141.011789 76.929780 -11.740108 0.758510
143.488397 76.929780 -11.588778 0.602142
-39.780598 74.453172 -12.359021 -0.488239
-37.303990 74.453172 -11.916929 -0.581610
-34.827382 74.453172 -10.149914 0.072658
-32.350774 74.453172 -10.313714 0.291383
-29.874166 74.453172 -11.308757 0.255307
-27.397558 74.453172 -12.368914 0.206075
-24.920950 74.453172 -12.642873 -0.571658
-22.444342 74.453172 -12.984482 -1.214027
-19.967734 74.453172 -12.279933 -1.026894
-17.491125 74.453172 -11.742025 -1.100015
-15.014517 74.453172 -12.219184 -1.310009
-12.537909 74.453172 -11.824606 -1.406964
-10.061301 74.453172 -11.553350 -1.320665
-7.584693 74.453172 -12.382431 -1.138117
-5.108085 74.453172 -12.212428 -1.436284
-2.631477 74.453172 -12.384264 -1.020282
-0.154869 74.453172 -12.550050 -0.937481
2.321739 74.453172 -12.141044 -1.497562
4.798347 74.453172 -11.893291 -1.026023
7.274955 74.453172 -11.928690 -0.665958
9.751563 74.453172 -13.098468 -0.422219
12.228171 74.453172 -13.165611 -0.947424
14.704779 74.453172 -12.822630 -1.301798
17.181387 74.453172 -12.812218 -1.282000
19.657995 74.453172 -13.233052 -1.210520
22.134603 74.453172 -13.214021 -0.752743
24.611211 74.453172 -13.241548 -0.181184
27.087819 74.453172 -13.189616 -0.565109
29.564427 74.453172 -12.798734 -0.992716
32.041035 74.453172 -12.944432 -1.074232
34.517643 74.453172 -12.899644 -1.061219
36.994251 74.453172 -13.103582 -0.741936
39.470859 74.453172 -13.043475 -0.594301
41.947467 74.453172 -12.348811 -0.139227
44.424075 74.453172 -12.771490 0.006076
46.900684 74.453172 -13.232860 -0.410817
49.377292 74.453172 -13.156810 -0.217304
51.853900 74.453172 -12.831936 0.413150
54.330508 74.453172 -13.246037 0.131673
56.807116 74.453172 -13.188637 -0.369474
59.283724 74.453172 -13.134496 -0.355344
61.760332 74.453172 -12.834599 -0.102520
64.236940 74.453172 -13.005224 0.276629
66.713548 74.453172 -13.249266 0.501833
69.190156 74.453172 -13.077810 0.417004
71.666764 74.453172 -13.307514 0.552042
74.143372 74.453172 -13.408969 0.348837
76.619980 74.453172 -12.781996 0.712716
79.096588 74.453172 -12.537094 1.328311
81.573196 74.453172 -13.178141 0.881274
84.049804 74.453172 -13.070825 0.447513
86.526412 74.453172 -12.747571 0.939982
89.003020 74.453172 -12.846555 1.141283
91.479628 74.453172 -12.611497 0.955065
93.956236 74.453172 -13.035245 0.782353
96.432844 74.453172 -13.332324 0.358356
98.909452 74.453172 -12.727809 1.007660
101.386060 74.453172 -12.776195 1.426906
103.862668 74.453172 -13.173749 1.206314
106.339276 74.453172 -12.806752 1.121137
108.815884 74.453172 -11.732198 0.818396
111.292493 74.453172 -12.230781 0.965681
113.769101 74.453172 -12.776304 0.857400
116.245709 74.453172 -12.497868 0.729269
118.722317 74.453172 -12.312546 1.251430
121.198925 74.453172 -11.772070 1.048197
123.675533 74.453172 -11.696573 1.260398
126.152141 74.453172 -11.929625 1.204745
128.628749 74.453172 -11.635798 1.049251
131.105357 74.453172 -11.335503 1.927575
133.581965 74.453172 -12.050648 1.360122
136.058573 74.453172 -11.614217 1.198114
138.535181 74.453172 -11.142550 1.382888
141.011789 74.453172 -11.823097 1.124820
143.488397 74.453172 -11.734134 1.510497
-39.780598 71.976564 -11.501733 -0.050045
-37.303990 71.976564 -11.784680 -0.915139
-34.827382 71.976564 -10.762428 -0.711553
-32.350774 71.976564 -10.773048 -0.448689
-29.874166 71.976564 -11.748935 -0.521546
-27.397558 71.976564 -12.679703 -0.398500
-24.920950 71.976564 -12.829605 -0.609813
-22.444342 71.976564 -13.020499 -0.640786
-19.967734 71.976564 -11.859603 -0.544435
-17.491125 71.976564 -11.699923 -0.181787
-15.014517 71.976564 -12.637281 -0.811641
-12.537909 71.976564 -12.399971 -1.110349
-10.061301 71.976564 -11.949939 -0.461373
-7.584693 71.976564 -12.442605 -0.463647
-5.108085 71.976564 -12.189908 -1.509220
-2.631477 71.976564 -12.262313 -1.462101
-0.154869 71.976564 -12.584069 -1.079828
2.321739 71.976564 -12.831987 -1.327517
4.798347 71.976564 -12.764364 -1.454656
7.274955 71.976564 -12.399998 -1.422744
9.751563 71.976564 -12.823515 -1.042819
12.228171 71.976564 -13.124474 -0.790921
14.704779 71.976564 -12.765295 -0.784674
17.181387 71.976564 -12.668780 -1.122781
19.657995 71.976564 -12.946607 -1.462005
22.134603 71.976564 -12.962357 -1.124930
24.611211 71.976564 -12.914240 -0.947859
27.087819 71.976564 -12.794336 -0.888051
29.564427 71.976564 -12.867914 -0.528516
32.041035 71.976564 -13.269290 -0.451612
34.517643 71.976564 -13.282520 -0.662058
36.994251 71.976564 -13.472293 -1.067685
39.470859 71.976564 -13.633182 -1.057568
41.947467 71.976564 -12.920948 -0.670271
44.424075 71.976564 -13.144613 -0.177700
46.900684 71.976564 -13.569571 -0.157440
49.377292 71.976564 -13.211753 -0.111324
51.853900 71.976564 -12.953781 0.091178
54.330508 71.976564 -13.241236 -0.072881
56.807116 71.976564 -13.192978 -0.397134
59.283724 71.976564 -13.408634 -0.535895
61.760332 71.976564 -12.626849 0.092688
64.236940 71.976564 -12.318903 -0.143075
66.713548 71.976564 -13.203436 -0.247527
69.190156 71.976564 -13.072966 0.644344
71.666764 71.976564 -13.454413 0.595918
74.143372 71.976564 -13.217149 0.209577
76.619980 71.976564 -12.804724 0.730429
79.096588 71.976564 -12.470871 1.218200
81.573196 71.976564 -12.679205 0.904494
84.049804 71.976564 -13.028102 0.687387
86.526412 71.976564 -12.897076 0.833858
89.003020 71.976564 -13.043031 1.101762
91.479628 71.976564 -12.779156 1.033857
93.956236 71.976564 -12.781892 1.084764
96.432844 71.976564 -13.209221 1.157864
98.909452 71.976564 -12.844648 1.485479
101.386060 71.976564 -12.918963 1.480868
103.862668 71.976564 -12.473357 0.702301
106.339276 71.976564 -12.560353 0.760415
108.815884 71.976564 -11.987307 0.897180
111.292493 71.976564 -11.776715 0.950846
113.769101 71.976564 -12.403384 0.851104
116.245709 71.976564 -12.796993 1.089874
118.722317 71.976564 -12.859371 0.325228
121.198925 71.976564 -12.436998 0.277599
123.675533 71.976564 -11.726530 1.375765
126.152141 71.976564 -11.620841 0.885406
128.628749 71.976564 -11.302364 0.841064
131.105357 71.976564 -11.047999 1.062252
133.581965 71.976564 -12.083890 0.929324
136.058573 71.976564 -12.121599 1.238601
138.535181 71.976564 -12.213316 1.290326
141.011789 71.976564 -11.305807 0.591534
143.488397 71.976564 -11.426812 0.721392
-39.780598 69.499956 -9.630414 0.584305
-37.303990 69.499956 -11.450312 -0.344523
-34.827382 69.499956 -11.740339 -1.238316
-32.350774 69.499956 -11.840959 -1.168584
-29.874166 69.499956 -12.260314 -1.041331
-27.397558 69.499956 -11.787026 -0.773071
-24.920950 69.499956 -11.912015 -0.711255
-22.444342 69.499956 -12.513969 -0.788785
-19.967734 69.499956 -12.533927 -1.016505
-17.491125 69.499956 -12.497987 -1.145668
-15.014517 69.499956 -12.710828 -1.470053
-12.537909 69.499956 -12.516056 -0.791141
-10.061301 69.499956 -12.463325 -0.077443
-7.584693 69.499956 -12.915860 -0.424322
-5.108085 69.499956 -12.559651 -0.797512
-2.631477 69.499956 -12.563368 -0.805019
-0.154869 69.499956 -13.032889 -0.992640
2.321739 69.499956 -13.261996 -1.387082
4.798347 69.499956 -13.253225 -1.847580
7.274955 69.499956 -12.847982 -2.087801
9.751563 69.499956 -12.681836 -2.088651
12.228171 69.499956 -12.734465 -1.713870
14.704779 69.499956 -12.194729 -0.794109
17.181387 69.499956 -12.272251 -0.492100
19.657995 69.499956 -12.726523 -0.803979
22.134603 69.499956 -13.199166 -0.686461
24.611211 69.499956 -12.837091 -1.306885
27.087819 69.499956 -12.294487 -1.429558
29.564427 69.499956 -12.971736 -0.630251
32.041035 69.499956 -13.187226 -0.519545
34.517643 69.499956 -13.197411 -0.402372
36.994251 69.499956 -13.402260 -0.405321
39.470859 69.499956 -13.500782 -0.770399
41.947467 69.499956 -13.409921 -1.037490
44.424075 69.499956 -13.534642 -0.830753
46.900684 69.499956 -13.376702 -0.295342
49.377292 69.499956 -13.017291 0.018723
51.853900 69.499956 -13.088922 -0.318070
54.330508 69.499956 -13.207621 -0.231363
56.807116 69.499956 -13.186064 -0.355578
59.283724 69.499956 -13.240899 -0.491529
61.760332 69.499956 -12.961671 -0.043227
64.236940 69.499956 -12.844340 0.022334
66.713548 69.499956 -13.507189 -0.230894
69.190156 69.499956 -13.269144 0.491608
71.666764 69.499956 -13.361358 0.746496
74.143372 69.499956 -13.083036 0.377568
76.619980 69.499956 -12.763247 0.859810
79.096588 69.499956 -12.909664 0.838593
81.573196 69.499956 -12.896094 0.678227
84.049804 69.499956 -13.044066 0.804696
86.526412 69.499956 -13.058405 0.886562
89.003020 69.499956 -13.312002 1.271726
91.479628 69.499956 -13.307979 1.576765
93.956236 69.499956 -12.959507 1.175702
96.432844 69.499956 -13.259688 1.751350
98.909452 69.499956 -12.779279 1.673609
101.386060 69.499956 -12.037517 1.034466
103.862668 69.499956 -11.513909 0.677903
106.339276 69.499956 -12.198770 0.912880
108.815884 69.499956 -12.412454 0.951343
111.292493 69.499956 -12.050374 0.788022
113.769101 69.499956 -12.013150 1.162345
116.245709 69.499956 -12.288138 1.579112
118.722317 69.499956 -12.868384 0.709943
121.198925 69.499956 0.637967 -3.229502
123.675533 69.499956 -11.785334 1.497801
126.152141 69.499956 -11.707760 1.041754
128.628749 69.499956 -11.867349 0.744560
131.105357 69.499956 -11.783244 0.877904
133.581965 69.499956 -11.752300 1.425208
136.058573 69.499956 -11.582160 1.188977
138.535181 69.499956 -11.822390 0.515323
141.011789 69.499956 -11.479051 -0.280569
143.488397 69.499956 -11.436877 -0.142772
-39.780598 67.023347 -9.407887 0.515231
-37.303990 67.023347 -10.161573 0.479705
-34.827382 67.023347 -11.008194 -1.163621
-32.350774 67.023347 -11.811119 -1.503901
-29.874166 67.023347 -11.734711 -1.447300
-27.397558 67.023347 -10.651722 -1.747375
-24.920950 67.023347 -11.980711 -1.554626
-22.444342 67.023347 -12.729261 -1.158951
-19.967734 67.023347 -12.644299 -0.857650
-17.491125 67.023347 -12.567695 -0.615924
-15.014517 67.023347 -12.620275 -0.895001
-12.537909 67.023347 -12.300593 -0.386891
-10.061301 67.023347 -12.479559 -0.280608
-7.584693 67.023347 -12.445631 -0.799885
-5.108085 67.023347 -12.752227 -0.693595
-2.631477 67.023347 -12.800197 -0.654163
-0.154869 67.023347 -12.954539 -0.824495
2.321739 67.023347 -12.596916 -0.924534
4.798347 67.023347 -13.080681 -1.768144
7.274955 67.023347 -13.274599 -1.936249
9.751563 67.023347 -13.024246 -1.968234
12.228171 67.023347 -12.490646 -2.495328
14.704779 67.023347 -11.511224 -1.886700
17.181387 67.023347 -11.718044 -0.983857
19.657995 67.023347 -12.600027 -1.027434
22.134603 67.023347 -13.237393 -0.924260
24.611211 67.023347 -13.139594 -1.219797
27.087819 67.023347 -13.014499 -1.508066
29.564427 67.023347 -12.735629 -1.240927
32.041035 67.023347 -12.791164 -0.757460
34.517643 67.023347 -13.101378 -0.609165
36.994251 67.023347 -13.030635 -0.461568
39.470859 67.023347 -12.915938 -0.724410
41.947467 67.023347 -13.323518 -1.117052
44.424075 67.023347 -13.534810 -0.758899
46.900684 67.023347 -13.180367 -0.271541
49.377292 67.023347 -12.626156 -0.257471
51.853900 67.023347 -12.797702 -0.283827
54.330508 67.023347 -13.181029 -0.460943
56.807116 67.023347 -13.275263 -0.497717
59.283724 67.023347 -13.127094 -0.316885
61.760332 67.023347 -13.028490 -0.180296
64.236940 67.023347 -12.979923 0.298299
66.713548 67.023347 -13.177131 -0.168907
69.190156 67.023347 -13.332015 -0.088944
71.666764 67.023347 -12.853022 0.375218
74.143372 67.023347 -12.854882 0.390942
76.619980 67.023347 -12.914414 0.971732
79.096588 67.023347 -13.247211 1.255962
81.573196 67.023347 -13.205698 0.757178
84.049804 67.023347 -13.118355 0.710543
86.526412 67.023347 -12.891718 0.902451
89.003020 67.023347 -12.899258 1.170152
91.479628 67.023347 -12.974671 1.736301
93.956236 67.023347 -12.478355 1.187909
96.432844 67.023347 -13.590104 1.624394
98.909452 67.023347 -13.072600 1.757238
101.386060 67.023347 -11.901345 0.571690
103.862668 67.023347 -11.808250 0.768492
106.339276 67.023347 -12.278763 1.740857
108.815884 67.023347 -12.300931 1.479085
111.292493 67.023347 -11.870884 0.942019
113.769101 67.023347 -12.130487 0.818506
116.245709 67.023347 -11.955204 1.415399
118.722317 67.023347 -11.986206 1.771815
121.198925 67.023347 -11.696172 1.177990
123.675533 67.023347 -12.083054 0.396160
126.152141 67.023347 -11.594990 1.244189
128.628749 67.023347 -12.037937 1.779909
131.105357 67.023347 -12.253105 1.410015
133.581965 67.023347 -11.712937 1.558225
136.058573 67.023347 -11.324566 1.036308
138.535181 67.023347 -11.786328 0.597945
141.011789 67.023347 -12.009119 0.370504
143.488397 67.023347 -12.091127 -0.062220
-39.780598 64.546739 -10.683318 -0.207477
-37.303990 64.546739 -11.015184 -0.594339
-34.827382 64.546739 -11.193537 -1.576280
-32.350774 64.546739 -11.653571 -1.417792
-29.874166 64.546739 -11.482865 -1.251897
-27.397558 64.546739 -11.582630 -1.683193
-24.920950 64.546739 -12.149598 -1.945240
-22.444342 64.546739 -12.426208 -1.341253
-19.967734 64.546739 -11.916239 -0.967331
-17.491125 64.546739 -11.913651 -0.809001
-15.014517 64.546739 -12.517995 -0.758072
-12.537909 64.546739 -12.193665 -0.574866
-10.061301 64.546739 -12.062918 -1.119153
-7.584693 64.546739 -11.968774 -1.536555
-5.108085 64.546739 -12.083085 -1.220307
-2.631477 64.546739 -12.470996 -1.082450
-0.154869 64.546739 -12.470367 -0.845743
2.321739 64.546739 -12.364310 -0.466029
4.798347 64.546739 -13.359310 -0.381602
7.274955 64.546739 -13.525373 -0.318119
9.751563 64.546739 -13.157996 -1.168482
12.228171 64.546739 -13.016515 -2.031438
14.704779 64.546739 -12.700132 -1.647196
17.181387 64.546739 -12.473463 -1.203691
19.657995 64.546739 -13.068837 -1.003785
22.134603 64.546739 -13.109392 -1.227126
24.611211 64.546739 -13.027784 -1.834854
27.087819 64.546739 -13.313076 -1.510471
29.564427 64.546739 -13.059772 -0.872388
32.041035 64.546739 -13.308283 -0.938517
34.517643 64.546739 -13.203337 -0.992569
36.994251 64.546739 -12.764088 -1.275707
39.470859 64.546739 -12.941159 -1.389335
41.947467 64.546739 -13.268933 -0.892266
44.424075 64.546739 -13.191724 -0.277019
46.900684 64.546739 -13.370769 -0.311259
49.377292 64.546739 -12.988165 -0.295863
51.853900 64.546739 -13.031906 -0.066876
54.330508 64.546739 -13.534144 -0.572896
56.807116 64.546739 -13.735588 -0.191413
59.283724 64.546739 -13.409372 -0.082452
61.760332 64.546739 -13.096970 -0.337777
64.236940 64.546739 -13.112662 0.019327
66.713548 64.546739 -12.867681 -0.078584
69.190156 64.546739 -13.278451 0.410249
71.666764 64.546739 -13.155215 0.730389
74.143372 64.546739 -13.107151 0.870693
76.619980 64.546739 -12.957410 1.174261
79.096588 64.546739 -12.919654 1.155791
81.573196 64.546739 -12.706763 0.903131
84.049804 64.546739 -12.990187 0.984487
86.526412 64.546739 -12.934353 0.875688
89.003020 64.546739 -12.894276 0.885447
91.479628 64.546739 -12.891869 1.567800
93.956236 64.546739 -12.251005 1.353566
96.432844 64.546739 -13.572606 1.356020
98.909452 64.546739 -13.030225 1.751281
101.386060 64.546739 -12.263597 0.865242
103.862668 64.546739 -11.866178 0.838424
106.339276 64.546739 -12.063580 2.794678
108.815884 64.546739 -12.130497 2.369399
111.292493 64.546739 -11.776448 1.277972
113.769101 64.546739 -12.011479 1.466879
116.245709 64.546739 -12.037665 1.932547
118.722317 64.546739 -11.786664 1.722619
121.198925 64.546739 -12.665749 1.581453
123.675533 64.546739 -12.689718 0.455593
126.152141 64.546739 -12.533345 0.847069
128.628749 64.546739 -12.463043 2.272991
131.105357 64.546739 -12.512398 2.415139
133.581965 64.546739 -12.573618 1.483633
136.058573 64.546739 -12.160696 1.333479
138.535181 64.546739 -11.854509 1.441456
141.011789 64.546739 -12.195495 0.531543
143.488397 64.546739 -12.277485 0.310068
-39.780598 62.070131 -11.559802 -0.545556
-37.303990 62.070131 -11.491903 -0.379128
-34.827382 62.070131 -11.670496 -1.276426
-32.350774 62.070131 -12.001529 -1.274034
-29.874166 62.070131 -12.025321 -1.263932
-27.397558 62.070131 -12.227948 -1.659232
-24.920950 62.070131 -11.970035 -1.601573
-22.444342 62.070131 -11.919021 -1.806476
-19.967734 62.070131 -11.762132 -1.092946
-17.491125 62.070131 -11.337681 -0.343708
-15.014517 62.070131 -12.140283 -0.812107
-12.537909 62.070131 -12.475157 -0.701244
-10.061301 62.070131 -12.661449 -1.125996
-7.584693 62.070131 -12.286258 -1.115453
-5.108085 62.070131 -11.653715 -1.293585
-2.631477 62.070131 -11.882950 -0.838074
-0.154869 62.070131 -12.352428 -0.364632
2.321739 62.070131 -12.548466 -0.947485
4.798347 62.070131 -13.153179 -0.454052
7.274955 62.070131 -13.305781 -0.741242
9.751563 62.070131 -12.830943 -1.547943
12.228171 62.070131 -13.015892 -1.637954
14.704779 62.070131 -13.197656 -1.077897
17.181387 62.070131 -12.720149 -0.768697
19.657995 62.070131 -13.220144 -0.634255
22.134603 62.070131 -13.638365 -0.919736
24.611211 62.070131 -13.241063 -1.725566
27.087819 62.070131 -13.400461 -1.381245
29.564427 62.070131 -13.446237 -0.752471
32.041035 62.070131 -13.316817 -1.023831
34.517643 62.070131 -13.341762 -0.762510
36.994251 62.070131 -13.105033 -1.350798
39.470859 62.070131 -13.019766 -1.690660
41.947467 62.070131 -13.206628 -1.066431
44.424075 62.070131 -13.195443 -0.370698
46.900684 62.070131 -13.525970 -0.404181
49.377292 62.070131 -13.433849 -0.022363
51.853900 62.070131 -13.097239 0.112330
54.330508 62.070131 -13.457752 -0.137827
56.807116 62.070131 -13.915909 0.064732
59.283724 62.070131 -13.903597 -0.105392
61.760332 62.070131 -13.574645 -0.054335
64.236940 62.070131 -13.488886 0.154811
66.713548 62.070131 -13.158837 0.508570
69.190156 62.070131 -13.447389 1.039344
71.666764 62.070131 -13.655231 1.311980
74.143372 62.070131 -13.452150 1.147034
76.619980 62.070131 -12.653188 0.532795
79.096588 62.070131 -12.544887 0.636694
81.573196 62.070131 -12.724259 0.792180
84.049804 62.070131 -13.037790 0.493119
86.526412 62.070131 -12.988890 0.747758
89.003020 62.070131 -12.959633 1.303379
91.479628 62.070131 -13.010406 1.050572
93.956236 62.070131 -12.295127 1.110241
96.432844 62.070131 -12.890290 1.130541
98.909452 62.070131 -12.829848 1.190534
101.386060 62.070131 -12.728176 1.558028
103.862668 62.070131 -12.477657 2.292918
106.339276 62.070131 -10.861711 2.773657
108.815884 62.070131 -12.138137 1.570169
111.292493 62.070131 -12.064840 1.456688
113.769101 62.070131 -11.967368 2.115053
116.245709 62.070131 -12.306647 2.349805
118.722317 62.070131 -11.836181 1.452129
121.198925 62.070131 -12.055246 1.126344
123.675533 62.070131 -12.147716 1.074171
126.152141 62.070131 -11.808270 1.006997
128.628749 62.070131 -12.183966 1.390039
131.105357 62.070131 -12.364090 1.812615
133.581965 62.070131 -12.900477 1.178272
136.058573 62.070131 -12.312022 1.685414
138.535181 62.070131 -11.934074 1.912737
141.011789 62.070131 -11.901218 0.704701
143.488397 62.070131 -11.394602 0.789936
-39.780598 59.593523 -10.570611 -1.799835
-37.303990 59.593523 -10.305553 -0.307120
-34.827382 59.593523 -10.985216 -0.328666
-32.350774 59.593523 -11.414563 -1.825268
-29.874166 59.593523 -11.900474 -1.874108
-27.397558 59.593523 -12.652849 -0.949709
-24.920950 59.593523 -12.506512 -0.533438
-22.444342 59.593523 -12.569131 -1.534008
-19.967734 59.593523 -12.018481 -1.245686
-17.491125 59.593523 -11.711992 -0.342104
-15.014517 59.593523 -12.341734 -0.662036
-12.537909 59.593523 -12.821846 -0.917041
-10.061301 59.593523 -13.154791 -1.461693
-7.584693 59.593523 -12.307126 -1.790270
-5.108085 59.593523 -11.422541 -1.385214
-2.631477 59.593523 -12.180470 -1.221057
-0.154869 59.593523 -12.587537 -1.619244
2.321739 59.593523 -12.658332 -1.926731
4.798347 59.593523 -12.804153 -1.671391
7.274955 59.593523 -12.844989 -1.745439
9.751563 59.593523 -12.542768 -1.790009
12.228171 59.593523 -12.584184 -1.162677
14.704779 59.593523 -12.691253 -0.600941
17.181387 59.593523 -12.785105 -0.471990
19.657995 59.593523 -13.350481 -1.109076
22.134603 59.593523 -13.957107 -1.180043
24.611211 59.593523 -13.686003 -1.314436
27.087819 59.593523 -13.222282 -1.240127
29.564427 59.593523 -12.795381 -1.064795
32.041035 59.593523 -12.854033 -1.136730
34.517643 59.593523 -13.240867 -0.881516
36.994251 59.593523 -13.420845 -1.150789
39.470859 59.593523 -13.117512 -1.324245
41.947467 59.593523 -13.101008 -0.982068
44.424075 59.593523 -13.386340 -0.441172
46.900684 59.593523 -13.396032 -0.407247
49.377292 59.593523 -13.609316 -0.012226
51.853900 59.593523 -13.361836 0.099906
54.330508 59.593523 -12.987249 0.267500
56.807116 59.593523 -13.045968 0.307693
59.283724 59.593523 -13.550877 0.077681
61.760332 59.593523 -13.465027 0.332494
64.236940 59.593523 -13.305798 0.148717
66.713548 59.593523 -13.523802 0.263142
69.190156 59.593523 -13.654915 0.849680
71.666764 59.593523 -13.558499 1.159266
74.143372 59.593523 -13.691927 0.595039
76.619980 59.593523 -13.225826 0.445743
79.096588 59.593523 -12.525153 0.665082
81.573196 59.593523 -13.137889 0.918616
84.049804 59.593523 -13.230227 0.988544
86.526412 59.593523 -12.963652 1.159284
89.003020 59.593523 -12.811038 1.316319
91.479628 59.593523 -12.850942 1.514900
93.956236 59.593523 -11.934274 1.814357
96.432844 59.593523 -11.403787 0.949985