TITLE = "B00063"
VARIABLES = "position", "position(2)", "Vx", "Vy"
ZONE T="Frame 0", I=75, J=50
-39.780598 81.882996 -11.117854 0.000440
-37.303990 81.882996 -11.920447 -0.928577
-34.827382 81.882996 -12.602770 -1.012713
-32.350774 81.882996 -12.395790 0.689452
-29.874166 81.882996 -12.607072 -0.474756
-27.397558 81.882996 -12.066836 -0.994650
-24.920950 81.882996 -12.061737 -0.743358
-22.444342 81.882996 -12.450182 -1.503609
-19.967734 81.882996 -12.600398 -1.326811
-17.491125 81.882996 -12.660758 -1.114291
-15.014517 81.882996 -12.286097 -0.379346
-12.537909 81.882996 -12.500741 -0.458819
-10.061301 81.882996 -12.516272 -0.632062
-7.584693 81.882996 -12.364786 -0.741640
-5.108085 81.882996 -12.324222 -1.390092
-2.631477 81.882996 -12.417299 -1.326088
-0.154869 81.882996 -12.265508 -1.278900
2.321739 81.882996 -11.912080 -0.346192
4.798347 81.882996 -13.004578 -0.010350
7.274955 81.882996 -13.635921 -1.317192
9.751563 81.882996 -13.390850 -1.319630
12.228171 81.882996 -13.234752 -0.642337
14.704779 81.882996 -13.013652 -1.098095
17.181387 81.882996 -12.293713 -1.151366
19.657995 81.882996 -12.165773 -0.754115
22.134603 81.882996 -12.344465 -0.399577
24.611211 81.882996 -11.503884 0.167983
27.087819 81.882996 -12.008998 -0.186565
29.564427 81.882996 -13.010133 -1.024558
32.041035 81.882996 -12.726646 -0.521008
34.517643 81.882996 -12.614098 -0.369786
36.994251 81.882996 -13.150272 -0.558254
39.470859 81.882996 -13.191810 -0.538099
41.947467 81.882996 -12.567277 -0.700685
44.424075 81.882996 -13.000257 -0.352238
46.900684 81.882996 -12.723010 -0.007108
49.377292 81.882996 -12.050915 -0.782119
51.853900 81.882996 -12.631126 -0.793574
54.330508 81.882996 -12.978453 0.293491
56.807116 81.882996 -13.388331 0.657787
59.283724 81.882996 -12.852431 0.489288
61.760332 81.882996 -12.665510 0.583527
64.236940 81.882996 -12.804471 0.824366
66.713548 81.882996 -12.733385 0.354362
69.190156 81.882996 -13.072543 0.020435
71.666764 81.882996 -12.589746 0.475317
74.143372 81.882996 -12.531077 0.681036
76.619980 81.882996 -12.307066 0.416093
79.096588 81.882996 -12.704052 -0.111293
81.573196 81.882996 -13.356624 0.514317
84.049804 81.882996 -12.785997 1.362861
86.526412 81.882996 -12.655415 0.898438
89.003020 81.882996 -12.874996 0.662185
91.479628 81.882996 -12.314833 1.073145
93.956236 81.882996 -12.807312 0.176616
96.432844 81.882996 -12.797663 1.053262
98.909452 81.882996 -13.055805 1.500461
101.386060 81.882996 -13.333913 1.443121
103.862668 81.882996 -13.680080 0.809052
106.339276 81.882996 -13.603576 0.528954
108.815884 81.882996 -13.097656 0.489673
111.292493 81.882996 -13.167590 0.211879
113.769101 81.882996 -12.248815 0.410212
116.245709 81.882996 -12.221286 1.069075
118.722317 81.882996 -12.528326 1.034546
121.198925 81.882996 -12.411923 1.073674
123.675533 81.882996 -12.513072 1.592908
126.152141 81.882996 -11.691664 1.318317
128.628749 81.882996 -11.765432 1.152725
131.105357 81.882996 -11.757012 0.796696
133.581965 81.882996 -11.436260 0.872795
136.058573 81.882996 -12.055175 0.686427
138.535181 81.882996 -12.434250 0.935029
141.011789 81.882996 -11.935200 1.949976
143.488397 81.882996 -11.631761 1.460483
-39.780598 79.406388 -11.169048 -0.309996
-37.303990 79.406388 -11.894065 -0.939232
-34.827382 79.406388 -12.639845 -0.568665
-32.350774 79.406388 -12.560926 -0.711168
-29.874166 79.406388 -12.762505 -1.107479
-27.397558 79.406388 -12.388978 -1.210199
-24.920950 79.406388 -12.341907 -1.392113
-22.444342 79.406388 -12.070862 -1.619677
-19.967734 79.406388 -12.549841 -0.865570
-17.491125 79.406388 -12.556479 -0.582404
-15.014517 79.406388 -12.182059 -0.281251
-12.537909 79.406388 -12.599924 -0.004763
-10.061301 79.406388 -13.009340 -0.646336
-7.584693 79.406388 -12.764582 -1.210467
-5.108085 79.406388 -12.390240 -1.020362
-2.631477 79.406388 -12.366572 -0.757726
-0.154869 79.406388 -12.275054 -0.903711
2.321739 79.406388 -12.169212 -0.602407
4.798347 79.406388 -12.641463 -0.447157
7.274955 79.406388 -13.181910 -1.275766
9.751563 79.406388 -13.394058 -1.420357
12.228171 79.406388 -13.411321 -0.933261
14.704779 79.406388 -13.215141 -1.111904
17.181387 79.406388 -12.724134 -0.985108
19.657995 79.406388 -12.715520 -0.150390
22.134603 79.406388 -12.648778 -0.168809
24.611211 79.406388 -11.938126 -0.212877
27.087819 79.406388 -12.637232 -0.350876
29.564427 79.406388 -13.307399 -1.008710
32.041035 79.406388 -12.980653 -0.509745
34.517643 79.406388 -12.928652 -0.216337
36.994251 79.406388 -13.187887 -0.266725
39.470859 79.406388 -13.093059 -0.193975
41.947467 79.406388 -12.463820 -0.485171
44.424075 79.406388 -13.109723 -0.721013
46.900684 79.406388 -13.394996 -0.514513
49.377292 79.406388 -13.086822 -0.629233
51.853900 79.406388 -12.799988 -0.545684
54.330508 79.406388 -12.890852 0.048197
56.807116 79.406388 -13.332645 0.345357
59.283724 79.406388 -13.311181 0.390452
61.760332 79.406388 -13.158249 0.115818
64.236940 79.406388 -13.101231 0.125222
66.713548 79.406388 -13.105298 -0.077912
69.190156 79.406388 -13.119914 -0.142464
71.666764 79.406388 -13.141777 0.472738
74.143372 79.406388 -13.308671 0.787389
76.619980 79.406388 -12.767172 0.642653
79.096588 79.406388 -12.849158 0.245961
81.573196 79.406388 -13.249090 0.540034
84.049804 79.406388 -12.680282 0.795299
86.526412 79.406388 -12.548185 0.673511
89.003020 79.406388 -12.456746 1.056792
91.479628 79.406388 -11.479103 1.307981
93.956236 79.406388 -12.349388 1.256268
96.432844 79.406388 -12.504617 1.417300
98.909452 79.406388 -12.610364 1.603660
101.386060 79.406388 -12.516620 1.291207
103.862668 79.406388 -13.426000 0.375956
106.339276 79.406388 -13.063858 0.653232
108.815884 79.406388 -12.691679 0.503599
111.292493 79.406388 -12.820584 0.121034
113.769101 79.406388 -12.051654 0.479583
116.245709 79.406388 -12.123907 1.221861
118.722317 79.406388 -12.775777 1.204096
121.198925 79.406388 -12.580776 0.609613
123.675533 79.406388 -12.122723 0.877207
126.152141 79.406388 -11.725533 1.063680
128.628749 79.406388 -11.617082 1.788512
131.105357 79.406388 -12.503854 1.551215
133.581965 79.406388 -12.106107 0.601062
136.058573 79.406388 -11.928668 0.303356
138.535181 79.406388 -11.718654 0.766775
141.011789 79.406388 -11.520702 1.588713
143.488397 79.406388 -11.344400 0.874904
-39.780598 76.929780 -12.769021 0.147519
-37.303990 76.929780 -12.295456 0.301966
-34.827382 76.929780 -12.544739 0.459259
-32.350774 76.929780 -12.476302 0.253655
-29.874166 76.929780 -12.256591 -1.178957
-27.397558 76.929780 -12.149183 -1.559211
-24.920950 76.929780 -11.935701 -1.167601
-22.444342 76.929780 -12.052740 -0.883058
-19.967734 76.929780 -12.704721 -0.417546
-17.491125 76.929780 -12.384824 -0.495561
-15.014517 76.929780 -12.152502 -0.363838
-12.537909 76.929780 -12.331685 -0.096448
-10.061301 76.929780 -12.733669 -0.481150
-7.584693 76.929780 -12.908744 -1.014193
-5.108085 76.929780 -12.360400 -1.166728
-2.631477 76.929780 -12.460994 -0.947544
-0.154869 76.929780 -12.655872 -0.986735
2.321739 76.929780 -12.787649 -1.181831
4.798347 76.929780 -12.650190 -0.978574
7.274955 76.929780 -12.478365 -0.810366
9.751563 76.929780 -12.923399 -0.935659
12.228171 76.929780 -13.025961 -0.532236
14.704779 76.929780 -13.037797 -0.385399
17.181387 76.929780 -13.319812 -0.751229
19.657995 76.929780 -13.804504 -0.049103
22.134603 76.929780 -13.118229 -0.268276
24.611211 76.929780 -12.613887 -0.971675
27.087819 76.929780 -12.835504 -0.931471
29.564427 76.929780 -12.832439 -0.893481
32.041035 76.929780 -12.979274 -0.760152
34.517643 76.929780 -12.936896 -0.903720
36.994251 76.929780 -12.842840 -0.678115
39.470859 76.929780 -12.969656 0.129926
41.947467 76.929780 -12.873646 -0.251667
44.424075 76.929780 -13.067984 -0.593414
46.900684 76.929780 -13.370465 -0.293656
49.377292 76.929780 -13.327124 -0.374842
51.853900 76.929780 -12.983306 -0.434913
54.330508 76.929780 -12.935032 -0.286933
56.807116 76.929780 -13.284584 0.314128
59.283724 76.929780 -13.440425 0.439435
61.760332 76.929780 -13.271925 -0.241752
64.236940 76.929780 -13.500188 -0.399129
66.713548 76.929780 -13.524039 -0.487116
69.190156 76.929780 -13.209989 0.087350
71.666764 76.929780 -13.387399 0.922024
74.143372 76.929780 -13.468377 0.514492
76.619980 76.929780 -13.010307 0.481996
79.096588 76.929780 -12.710091 0.652300
81.573196 76.929780 -13.131968 0.704886
84.049804 76.929780 -12.828190 0.623934
86.526412 76.929780 -12.712522 0.913372
89.003020 76.929780 -12.635729 1.279881
91.479628 76.929780 -12.258548 1.012349
93.956236 76.929780 -12.225236 1.238753
96.432844 76.929780 -12.453751 1.263645
98.909452 76.929780 -12.579738 1.283852
101.386060 76.929780 -12.118472 1.289319
103.862668 76.929780 -13.069788 0.394797
106.339276 76.929780 -12.904116 1.091770
108.815884 76.929780 -12.645647 1.197863
111.292493 76.929780 -12.183579 0.885158
113.769101 76.929780 -11.693461 1.217297
116.245709 76.929780 -11.654364 1.596140
118.722317 76.929780 -11.697834 0.808749
121.198925 76.929780 -11.738535 0.459639
123.675533 76.929780 -11.998622 1.129251
126.152141 76.929780 -11.961203 1.138018
128.628749 76.929780 -12.155012 1.753105
131.105357 76.929780 -12.577864 1.602414
133.581965 76.929780 -12.130538 0.522139
136.058573 76.929780 -11.677845 0.055190
138.535181 76.929780 -11.781153 0.286631
141.011789 76.929780 -11.415329 0.728373
143.488397 76.929780 -11.031926 0.237491
-39.780598 74.453172 -12.040426 0.091096
-37.303990 74.453172 -12.004034 0.298261
-34.827382 74.453172 -11.821729 0.124274
-32.350774 74.453172 -11.807418 0.085968
-29.874166 74.453172 -11.867090 -0.488138
-27.397558 74.453172 -11.644000 -1.039399
-24.920950 74.453172 -11.506729 -0.795411
-22.444342 74.453172 -11.931418 -0.156548
-19.967734 74.453172 -12.334657 -0.259701
-17.491125 74.453172 -12.455723 -1.272704
-15.014517 74.453172 -12.388780 -0.988840
-12.537909 74.453172 -12.311089 -0.828036
-10.061301 74.453172 -12.666790 -1.028570
-7.584693 74.453172 -13.133829 -0.744879
-5.108085 74.453172 -12.617114 -1.110991
-2.631477 74.453172 -12.641792 -1.511635
-0.154869 74.453172 -12.847350 -1.435445
2.321739 74.453172 -12.694072 -1.070324
4.798347 74.453172 -12.629124 -0.630538
7.274955 74.453172 -12.590243 -0.636086
9.751563 74.453172 -12.841365 -0.826179
12.228171 74.453172 -12.829619 -1.015207
14.704779 74.453172 -12.795695 -1.293218
17.181387 74.453172 -13.149194 -1.281297
19.657995 74.453172 -13.205390 -1.040000
22.134603 74.453172 -12.889705 -0.926143
24.611211 74.453172 -12.715369 -0.787143
27.087819 74.453172 -12.589287 -0.478105
29.564427 74.453172 -12.653716 -0.418518
32.041035 74.453172 -12.757754 -0.278936
34.517643 74.453172 -12.657969 -0.500786
36.994251 74.453172 -12.527495 -0.305486
39.470859 74.453172 -12.825671 0.011587
41.947467 74.453172 -12.810879 -0.564514
44.424075 74.453172 -13.229460 -0.651979
46.900684 74.453172 -13.202345 -0.416473
49.377292 74.453172 -12.793059 -0.212308
51.853900 74.453172 -12.534531 -0.218214
54.330508 74.453172 -12.709843 -0.197905
56.807116 74.453172 -13.053205 0.274559
59.283724 74.453172 -12.982932 0.489858
61.760332 74.453172 -13.109320 0.093323
64.236940 74.453172 -13.474131 -0.184758
66.713548 74.453172 -13.033919 -0.055116
69.190156 74.453172 -13.057586 0.238001
71.666764 74.453172 -13.126725 0.256613
74.143372 74.453172 -13.163788 0.350011
76.619980 74.453172 -13.054613 0.093276
79.096588 74.453172 -12.889029 0.321014
81.573196 74.453172 -13.217197 1.055631
84.049804 74.453172 -13.108369 1.015599
86.526412 74.453172 -13.088783 1.179061
89.003020 74.453172 -13.029950 1.227708
91.479628 74.453172 -12.398672 0.855517
93.956236 74.453172 -11.663264 0.440304
96.432844 74.453172 -12.473385 0.845021
98.909452 74.453172 -12.575715 0.976820
101.386060 74.453172 -12.269216 0.856381
103.862668 74.453172 -11.860404 1.376246
106.339276 74.453172 -12.329684 1.292696
108.815884 74.453172 -12.391081 0.625926
111.292493 74.453172 -11.987192 0.221491
113.769101 74.453172 -12.001216 0.752535
116.245709 74.453172 -11.850711 1.186137
118.722317 74.453172 -11.116783 0.261763
121.198925 74.453172 -10.634685 0.257877
123.675533 74.453172 -11.436463 1.247021
126.152141 74.453172 -11.525235 0.645016
128.628749 74.453172 -12.218009 0.976201
131.105357 74.453172 -12.206616 1.400447
133.581965 74.453172 -11.904756 0.733473
136.058573 74.453172 -12.451771 0.935025
138.535181 74.453172 -12.793065 0.847618
141.011789 74.453172 -11.940264 0.180997
143.488397 74.453172 -11.919040 -0.404014
-39.780598 71.976564 -12.252504 -0.721204
-37.303990 71.976564 -12.140671 0.272616
-34.827382 71.976564 -11.921335 -0.780175
-32.350774 71.976564 -11.805182 -0.963284
-29.874166 71.976564 -12.094389 -0.141329
-27.397558 71.976564 -12.391708 -0.409993
-24.920950 71.976564 -12.284396 -1.135208
-22.444342 71.976564 -12.313885 -0.794227
-19.967734 71.976564 -12.167491 -0.729305
-17.491125 71.976564 -12.298389 -1.189417
-15.014517 71.976564 -11.944043 -1.013534
-12.537909 71.976564 -12.415796 -1.197257
-10.061301 71.976564 -13.189728 -1.434441
-7.584693 71.976564 -13.023579 -1.261503
-5.108085 71.976564 -12.081414 -1.501718
-2.631477 71.976564 -12.583335 -1.461670
-0.154869 71.976564 -12.907206 -1.158829
2.321739 71.976564 -12.068295 -0.429471
4.798347 71.976564 -11.963466 -0.571077
7.274955 71.976564 -12.788684 -0.998490
9.751563 71.976564 -13.199657 -1.037765
12.228171 71.976564 -12.994437 -1.726481
14.704779 71.976564 -12.524242 -1.564477
17.181387 71.976564 -13.140334 -1.085240
19.657995 71.976564 -13.181690 -1.300385
22.134603 71.976564 -12.892882 -1.159404
24.611211 71.976564 -13.018671 -0.897431
27.087819 71.976564 -12.876682 -0.221010
29.564427 71.976564 -13.197241 -0.376212
32.041035 71.976564 -13.247901 -0.699263
34.517643 71.976564 -13.298794 -0.521114
36.994251 71.976564 -13.197423 -0.107311
39.470859 71.976564 -13.102174 -0.169949
41.947467 71.976564 -12.905464 -0.716569
44.424075 71.976564 -13.528410 -0.706412
46.900684 71.976564 -13.557308 -0.415195
49.377292 71.976564 -12.947653 -0.225086
51.853900 71.976564 -12.951351 -0.420788
54.330508 71.976564 -12.908030 -0.346114
56.807116 71.976564 -12.775976 0.310583
59.283724 71.976564 -12.752668 0.713438
61.760332 71.976564 -13.187197 0.516571
64.236940 71.976564 -13.299778 0.442318
66.713548 71.976564 -12.675786 0.627059
69.190156 71.976564 -13.015989 0.327369
71.666764 71.976564 -13.297694 -0.086635
74.143372 71.976564 -13.153635 0.350759
76.619980 71.976564 -13.490311 0.065465
79.096588 71.976564 -13.185978 0.347760
81.573196 71.976564 -13.071535 1.028281
84.049804 71.976564 -12.875622 0.634345
86.526412 71.976564 -12.796344 1.021846
89.003020 71.976564 -13.150476 1.374482
91.479628 71.976564 -12.517199 0.997574
93.956236 71.976564 -12.165783 0.548108
96.432844 71.976564 -12.664664 0.589931
98.909452 71.976564 -12.520234 0.810810
101.386060 71.976564 -12.578579 1.102896
103.862668 71.976564 -12.005393 1.918005
106.339276 71.976564 -11.690307 1.359946
108.815884 71.976564 -11.475654 0.878195
111.292493 71.976564 -11.781575 0.780082
113.769101 71.976564 -12.234067 0.851816
116.245709 71.976564 -12.162795 1.309214
118.722317 71.976564 -12.074036 0.698189
121.198925 71.976564 -11.996185 0.531757
123.675533 71.976564 -10.942052 0.858219
126.152141 71.976564 -11.045916 0.321270
128.628749 71.976564 -11.818492 0.433541
131.105357 71.976564 -12.236275 0.858517
133.581965 71.976564 -11.963263 0.710626
136.058573 71.976564 -12.355510 0.865636
138.535181 71.976564 -11.977184 1.236989
141.011789 71.976564 -11.465385 0.454419
143.488397 71.976564 -11.886187 -0.356296
-39.780598 69.499956 -12.884587 -0.524847
-37.303990 69.499956 -12.089756 -0.510919
-34.827382 69.499956 -12.185580 -0.868540
-32.350774 69.499956 -12.245241 -1.171325
-29.874166 69.499956 -12.110256 -0.681168
-27.397558 69.499956 -12.174137 -0.503136
-24.920950 69.499956 -11.834043 -1.132316
-22.444342 69.499956 -11.865636 -1.102347
-19.967734 69.499956 -11.973498 -0.904220
-17.491125 69.499956 -12.373239 -0.633626
-15.014517 69.499956 -12.050824 -0.521106
-12.537909 69.499956 -12.165147 -0.949543
-10.061301 69.499956 -12.986779 -1.085595
-7.584693 69.499956 -12.692871 -1.260127
-5.108085 69.499956 -11.814933 -1.704070
-2.631477 69.499956 -12.073692 -1.311463
-0.154869 69.499956 -12.725671 -1.003434
2.321739 69.499956 -12.207367 -0.644992
4.798347 69.499956 -11.803292 -0.922670
7.274955 69.499956 -12.474805 -1.432506
9.751563 69.499956 -12.852153 -1.401939
12.228171 69.499956 -12.869374 -1.388263
14.704779 69.499956 -12.763415 -0.887664
17.181387 69.499956 -13.118587 -0.937895
19.657995 69.499956 -13.369125 -1.440702
22.134603 69.499956 -13.130591 -1.477585
24.611211 69.499956 -13.159387 -1.397259
27.087819 69.499956 -13.019616 -0.966720
29.564427 69.499956 -12.979385 -0.758975
32.041035 69.499956 -13.273406 -0.659658
34.517643 69.499956 -13.255717 -0.991373
36.994251 69.499956 -13.341885 -1.178066
39.470859 69.499956 -13.395627 -0.787519
41.947467 69.499956 -13.107990 -0.574358
44.424075 69.499956 -13.467176 -0.539151
46.900684 69.499956 -13.391108 -0.354008
49.377292 69.499956 -13.066967 -0.497917
51.853900 69.499956 -13.304280 -0.673237
54.330508 69.499956 -13.229834 -0.469706
56.807116 69.499956 -12.969210 0.144456
59.283724 69.499956 -13.254584 0.139596
61.760332 69.499956 -13.279164 -0.061921
64.236940 69.499956 -13.031473 0.378518
66.713548 69.499956 -12.830045 0.608739
69.190156 69.499956 -12.928966 0.448475
71.666764 69.499956 -13.359171 0.480261
74.143372 69.499956 -13.142578 0.638771
76.619980 69.499956 -13.375415 0.270797
79.096588 69.499956 -13.272204 0.535210
81.573196 69.499956 -13.281523 0.853948
84.049804 69.499956 -12.924875 0.847635
86.526412 69.499956 -12.400956 1.460275
89.003020 69.499956 -13.028910 1.277596
91.479628 69.499956 -12.832060 1.066142
93.956236 69.499956 -12.386048 0.988097
96.432844 69.499956 -12.468682 0.443153
98.909452 69.499956 -12.077842 0.366840
101.386060 69.499956 -12.402118 1.238186
103.862668 69.499956 -12.570787 2.182783
106.339276 69.499956 -12.305668 1.232798
108.815884 69.499956 -12.008726 1.139642
111.292493 69.499956 -12.148011 1.718883
113.769101 69.499956 -12.209540 2.060284
116.245709 69.499956 -11.745562 1.789568
118.722317 69.499956 -11.911568 1.299691
121.198925 69.499956 -11.791835 0.599371
123.675533 69.499956 -11.219962 0.468890
126.152141 69.499956 -10.968481 1.179731
128.628749 69.499956 -11.017859 1.211092
131.105357 69.499956 -11.858982 1.136049
133.581965 69.499956 -11.665814 1.256223
136.058573 69.499956 -11.485699 1.182555
138.535181 69.499956 -11.429745 1.096304
141.011789 69.499956 -10.923237 0.339194
143.488397 69.499956 -10.445745 -0.254070
-39.780598 67.023347 -12.658482 -0.673551
-37.303990 67.023347 -12.410026 -1.041585
-34.827382 67.023347 -12.387947 -1.234520
-32.350774 67.023347 -12.235611 -1.169635
-29.874166 67.023347 -12.475716 -1.154261
-27.397558 67.023347 -11.989510 -1.518748
-24.920950 67.023347 -11.396153 -1.053555
-22.444342 67.023347 -11.535946 -0.531640
-19.967734 67.023347 -11.810442 -0.664792
-17.491125 67.023347 -12.452903 -0.714358
-15.014517 67.023347 -12.203860 -1.215497
-12.537909 67.023347 -12.538148 -0.781777
-10.061301 67.023347 -13.035571 -0.975653
-7.584693 67.023347 -12.414585 -1.826301
-5.108085 67.023347 -12.291304 -1.720901
-2.631477 67.023347 -11.966410 -1.333575
-0.154869 67.023347 -12.342780 -1.178148
2.321739 67.023347 -12.895721 -1.578973
4.798347 67.023347 -12.523799 -1.232261
7.274955 67.023347 -12.072257 -1.165175
9.751563 67.023347 -12.427466 -1.307475
12.228171 67.023347 -13.079569 -0.898689
14.704779 67.023347 -12.952365 -0.730564
17.181387 67.023347 -12.488857 -1.162964
19.657995 67.023347 -12.816063 -1.607977
22.134603 67.023347 -12.864913 -1.589770
24.611211 67.023347 -13.015929 -0.941294
27.087819 67.023347 -13.157248 -0.841566
29.564427 67.023347 -12.835730 -1.059259
32.041035 67.023347 -13.180202 -0.550228
34.517643 67.023347 -13.255042 -0.133993
36.994251 67.023347 -13.218703 -0.465889
39.470859 67.023347 -13.299188 -0.822350
41.947467 67.023347 -12.979513 -0.733586
44.424075 67.023347 -13.152360 -0.588244
46.900684 67.023347 -13.316879 -0.337873
49.377292 67.023347 -13.013956 -0.097574
51.853900 67.023347 -12.910226 0.179623
54.330508 67.023347 -13.210580 0.009146
56.807116 67.023347 -13.083258 -0.039860
59.283724 67.023347 -13.768633 -0.225253
61.760332 67.023347 -13.650882 -0.251152
64.236940 67.023347 -12.986547 0.192213
66.713548 67.023347 -12.814450 0.074121
69.190156 67.023347 -12.930691 0.372681
71.666764 67.023347 -13.421169 1.021311
74.143372 67.023347 -13.277867 1.097214
76.619980 67.023347 -13.221799 0.932421
79.096588 67.023347 -13.501818 0.882758
81.573196 67.023347 -13.313653 0.702198
84.049804 67.023347 -12.877106 1.148069
86.526412 67.023347 -12.338096 1.739273
89.003020 67.023347 -12.631209 1.384106
91.479628 67.023347 -13.006696 1.194016
93.956236 67.023347 -12.416040 1.497169
96.432844 67.023347 -11.859933 0.817792
98.909452 67.023347 -11.708507 0.682723
101.386060 67.023347 -11.832061 1.234090
103.862668 67.023347 -12.270816 1.870679
106.339276 67.023347 -12.696860 1.675525
108.815884 67.023347 -12.606105 1.379355
111.292493 67.023347 -12.298192 1.396163
113.769101 67.023347 -12.030697 1.632283
116.245709 67.023347 -11.893271 1.507763
118.722317 67.023347 -11.819089 1.423746
121.198925 67.023347 -11.390017 0.939485
123.675533 67.023347 -11.482950 0.597317
126.152141 67.023347 -11.186772 1.154199
128.628749 67.023347 -10.992653 1.105712
131.105357 67.023347 -11.806795 0.593692
133.581965 67.023347 -11.344888 0.582436
136.058573 67.023347 -10.559743 0.152216
138.535181 67.023347 -11.301679 0.380409
141.011789 67.023347 -12.053567 1.025052
143.488397 67.023347 -11.801804 0.344038
-39.780598 64.546739 -11.342093 -0.870108
-37.303990 64.546739 -12.211314 -0.096207
-34.827382 64.546739 -12.359858 -0.505113
-32.350774 64.546739 -11.908498 -1.393275
-29.874166 64.546739 -12.513048 -1.239948
-27.397558 64.546739 -12.567843 -1.903565
-24.920950 64.546739 -12.371669 -1.722728
-22.444342 64.546739 -12.065862 -0.661570
-19.967734 64.546739 -11.945416 -1.052329
-17.491125 64.546739 -12.457037 -1.057933
-15.014517 64.546739 -12.386906 -0.614946
-12.537909 64.546739 -12.472591 -0.260275
-10.061301 64.546739 -12.842759 -0.741885
-7.584693 64.546739 -12.234255 -1.726374
-5.108085 64.546739 -12.585235 -1.789932
-2.631477 64.546739 -12.260789 -1.464820
-0.154869 64.546739 -12.241885 -1.470454
2.321739 64.546739 -12.624830 -1.340758
4.798347 64.546739 -12.550650 -0.272623
7.274955 64.546739 -12.049872 -0.502802
9.751563 64.546739 -12.614751 -1.222591
12.228171 64.546739 -13.240673 -1.539664
14.704779 64.546739 -12.737983 -1.395864
17.181387 64.546739 -12.086573 -0.965643
19.657995 64.546739 -12.574483 -1.024741
22.134603 64.546739 -12.899495 -0.991527
24.611211 64.546739 -13.275938 -0.875407
27.087819 64.546739 -13.402857 -0.977541
29.564427 64.546739 -13.082412 -1.158972
32.041035 64.546739 -13.335485 -0.788642
34.517643 64.546739 -13.559460 -0.254333
36.994251 64.546739 -13.848975 -0.798661
39.470859 64.546739 -13.738744 -1.168347
41.947467 64.546739 -13.270921 -0.611294
44.424075 64.546739 -13.134577 -0.139996
46.900684 64.546739 -13.279029 -0.027497
49.377292 64.546739 -13.159718 0.204236
51.853900 64.546739 -13.030348 0.233070
54.330508 64.546739 -13.211944 -0.286759
56.807116 64.546739 -12.905980 -0.352790
59.283724 64.546739 -13.334121 -0.242263
61.760332 64.546739 -13.685296 0.300460
64.236940 64.546739 -13.439194 0.604776
66.713548 64.546739 -13.243010 0.184320
69.190156 64.546739 -13.479462 -0.142253
71.666764 64.546739 -13.676820 0.308526
74.143372 64.546739 -13.311999 0.911991
76.619980 64.546739 -13.183934 0.899333
79.096588 64.546739 -13.463155 1.111046
81.573196 64.546739 -13.059690 1.152303
84.049804 64.546739 -12.644927 1.145443
86.526412 64.546739 -12.620515 1.532001
89.003020 64.546739 -13.307766 1.712296
91.479628 64.546739 -13.345640 1.841253
93.956236 64.546739 -12.664578 1.601141
96.432844 64.546739 -12.043007 1.186928
98.909452 64.546739 -11.846974 1.648022
101.386060 64.546739 -11.798163 1.660148
103.862668 64.546739 -12.100416 1.570108
106.339276 64.546739 -12.429218 1.504622
108.815884 64.546739 -12.769509 1.320728
111.292493 64.546739 -12.225939 0.738970
113.769101 64.546739 -12.356391 0.714121
116.245709 64.546739 -12.417095 0.904577
118.722317 64.546739 -12.154289 1.229244
121.198925 64.546739 -11.992199 0.879732
123.675533 64.546739 -11.451879 0.389643
126.152141 64.546739 -11.898927 1.021889
128.628749 64.546739 -11.888933 0.909510
131.105357 64.546739 -11.792577 0.470141
133.581965 64.546739 -10.511267 0.612792
136.058573 64.546739 -10.378900 0.369946
138.535181 64.546739 -10.491230 0.570690
141.011789 64.546739 -11.208331 1.266830
143.488397 64.546739 -11.738065 0.552215
-39.780598 62.070131 -10.299205 -0.429958
-37.303990 62.070131 -11.195207 -0.527097
-34.827382 62.070131 -11.652529 -0.625586
-32.350774 62.070131 -11.559720 -0.447503
-29.874166 62.070131 -12.273378 -0.346518
-27.397558 62.070131 -12.388309 -0.926133
-24.920950 62.070131 -12.380359 -1.453601
-22.444342 62.070131 -12.187042 -1.009569
-19.967734 62.070131 -12.098149 -1.116753
-17.491125 62.070131 -12.401999 -0.815130
-15.014517 62.070131 -12.417478 -0.412464
-12.537909 62.070131 -11.956410 -0.314777
-10.061301 62.070131 -12.074175 -0.582080
-7.584693 62.070131 -12.439895 -1.247916
-5.108085 62.070131 -12.763276 -1.006260
-2.631477 62.070131 -12.435294 -0.800516
-0.154869 62.070131 -12.325379 -1.658662
2.321739 62.070131 -12.260409 -1.131092
4.798347 62.070131 -12.417263 -0.230364
7.274955 62.070131 -12.078762 -0.558322
9.751563 62.070131 -12.152142 -1.081334
12.228171 62.070131 -12.477984 -1.567368
14.704779 62.070131 -12.618737 -1.939887
17.181387 62.070131 -11.792335 -1.731129
19.657995 62.070131 -12.377126 -1.313774
22.134603 62.070131 -13.079971 -0.811652
24.611211 62.070131 -13.004856 -1.492342
27.087819 62.070131 -13.422989 -2.111623
29.564427 62.070131 -13.560122 -1.469835
32.041035 62.070131 -13.493300 -0.532954
34.517643 62.070131 -13.104692 -0.316133
36.994251 62.070131 -13.275022 -1.108718
39.470859 62.070131 -13.592669 -1.198739
41.947467 62.070131 -13.323452 -0.697734
44.424075 62.070131 -13.210159 -0.206005
46.900684 62.070131 -13.332786 -0.167772
49.377292 62.070131 -13.407609 -0.400624
51.853900 62.070131 -13.450306 -0.459348
54.330508 62.070131 -13.261583 -0.439263
56.807116 62.070131 -13.069363 -0.582699
59.283724 62.070131 -13.094877 -0.068646
61.760332 62.070131 -13.141528 0.395334
64.236940 62.070131 -13.305925 0.418866
66.713548 62.070131 -13.501111 0.716768
69.190156 62.070131 -13.665999 0.038766
71.666764 62.070131 -13.581215 -0.091028
74.143372 62.070131 -13.267403 0.691863
76.619980 62.070131 -13.530780 0.351574
79.096588 62.070131 -13.761908 0.688689
81.573196 62.070131 -13.042502 1.607338
84.049804 62.070131 -12.837853 1.264077
86.526412 62.070131 -13.012722 0.946388
89.003020 62.070131 -13.481807 1.442526
91.479628 62.070131 -13.237082 1.699877
93.956236 62.070131 -12.261870 0.901115
96.432844 62.070131 -12.340721 1.010303
98.909452 62.070131 -12.112293 1.769982
101.386060 62.070131 -11.966920 1.778044
103.862668 62.070131 -11.947011 1.351075
106.339276 62.070131 -11.424787 0.649847
108.815884 62.070131 -12.475036 1.327390
111.292493 62.070131 -12.193625 0.974371
113.769101 62.070131 -12.277933 0.750734
116.245709 62.070131 -12.464693 0.796487
118.722317 62.070131 -12.114937 0.810988
121.198925 62.070131 -11.367125 0.924532
123.675533 62.070131 -11.525088 0.516537
126.152141 62.070131 -12.194340 0.857495
128.628749 62.070131 -11.872968 1.005534
131.105357 62.070131 -11.042838 0.777231
133.581965 62.070131 -10.937137 1.250876
136.058573 62.070131 -11.424098 1.559411
138.535181 62.070131 -10.569290 1.342457
141.011789 62.070131 -10.374678 0.861626
143.488397 62.070131 -10.836815 0.636471
-39.780598 59.593523 -11.992276 -1.036028
-37.303990 59.593523 -11.115046 -1.319150
-34.827382 59.593523 -10.967701 -1.540863
-32.350774 59.593523 -11.770578 -0.927911
-29.874166 59.593523 -12.331072 -0.309039
-27.397558 59.593523 -12.219661 -0.421400
-24.920950 59.593523 -12.283137 -1.232789
-22.444342 59.593523 -12.371021 -1.562092
-19.967734 59.593523 -11.936491 -1.094237
-17.491125 59.593523 -12.534338 -1.059300
-15.014517 59.593523 -11.975283 -1.444047
-12.537909 59.593523 -11.341194 -0.744067
-10.061301 59.593523 -11.773135 -0.457894
-7.584693 59.593523 -12.551800 -1.666437
-5.108085 59.593523 -12.739786 -1.521847
-2.631477 59.593523 -12.685541 -0.852749
-0.154869 59.593523 -12.098688 -1.465204
2.321739 59.593523 -12.838851 -1.037050
4.798347 59.593523 -13.144671 -0.034705
7.274955 59.593523 -12.555710 -0.667626
9.751563 59.593523 -12.191331 -1.362846
12.228171 59.593523 -12.393658 -1.427870
14.704779 59.593523 -12.750887 -1.870059
17.181387 59.593523 -12.698334 -1.636557
19.657995 59.593523 -12.619454 -1.400465
22.134603 59.593523 -13.028634 -1.168455
24.611211 59.593523 -12.957637 -1.425040
27.087819 59.593523 -13.219291 -1.836621
29.564427 59.593523 -13.405925 -1.499309
32.041035 59.593523 -13.469935 -0.937051
34.517643 59.593523 -12.770849 -0.218881
36.994251 59.593523 -12.493423 -0.166237
39.470859 59.593523 -13.424036 -0.878023
41.947467 59.593523 -13.174178 -0.900756
44.424075 59.593523 -13.484297 -0.652671
46.900684 59.593523 -13.616349 -0.723173
49.377292 59.593523 -13.435678 -0.766856
51.853900 59.593523 -13.419262 -0.469882
54.330508 59.593523 -13.367531 -0.418667
56.807116 59.593523 -13.630009 -0.533710
59.283724 59.593523 -13.533638 -0.090533
61.760332 59.593523 -13.227312 0.093819
64.236940 59.593523 -13.409124 0.066970
66.713548 59.593523 -13.620171 0.541327
69.190156 59.593523 -13.680451 0.419174
71.666764 59.593523 -13.600090 0.514544
74.143372 59.593523 -13.438873 1.076142
76.619980 59.593523 -13.660749 0.959358
79.096588 59.593523 -13.585981 1.092986
81.573196 59.593523 -13.105983 1.875833
84.049804 59.593523 -13.301919 1.335598
86.526412 59.593523 -13.406946 0.580573
89.003020 59.593523 -13.580611 1.351182
91.479628 59.593523 -13.761219 1.942595
93.956236 59.593523 -13.148698 1.400489
96.432844 59.593523 -12.175465 1.601004