TITLE = "B00016"
VARIABLES = "position", "position(2)", "Vx", "Vy"
ZONE T="Frame 0", I=75, J=50
-39.780598 81.882996 -10.251487 -1.581342
-37.303990 81.882996 -11.089407 -1.151345
-34.827382 81.882996 -11.382359 -0.522612
-32.350774 81.882996 -11.286362 -0.009434
-29.874166 81.882996 -11.772384 0.323859
-27.397558 81.882996 -12.166170 0.385639
-24.920950 81.882996 -12.374757 0.075990
-22.444342 81.882996 -12.652722 -0.453730
-19.967734 81.882996 -12.954954 -1.110236
-17.491125 81.882996 -12.625550 -0.314532
-15.014517 81.882996 -12.518348 -0.232116
-12.537909 81.882996 -12.644702 -1.176923
-10.061301 81.882996 -13.012939 -1.470018
-7.584693 81.882996 -13.310614 -1.256075
-5.108085 81.882996 -12.869798 -1.519305
-2.631477 81.882996 -12.013751 -0.736693
-0.154869 81.882996 -12.137767 -0.823299
2.321739 81.882996 -12.460817 0.055055
4.798347 81.882996 -12.587317 0.000525
7.274955 81.882996 -12.855138 -0.921823
9.751563 81.882996 -12.830850 -0.670098
12.228171 81.882996 -12.841491 -0.181793
14.704779 81.882996 -12.856818 0.157203
17.181387 81.882996 -12.992675 -0.428767
19.657995 81.882996 -13.138970 -0.082588
22.134603 81.882996 -13.183746 0.004441
24.611211 81.882996 -12.775111 -1.211985
27.087819 81.882996 -12.760154 -1.006116
29.564427 81.882996 -12.833539 -0.494288
32.041035 81.882996 -12.649311 -0.576721
34.517643 81.882996 -12.844158 -0.117887
36.994251 81.882996 -13.428209 -0.255592
39.470859 81.882996 -13.572381 -0.836923
41.947467 81.882996 -12.798246 -1.117435
44.424075 81.882996 -12.715927 -0.548188
46.900684 81.882996 -12.717129 0.142489
49.377292 81.882996 -12.625268 -0.739811
51.853900 81.882996 -13.065567 -0.523434
54.330508 81.882996 -13.299343 0.255213
56.807116 81.882996 -13.183756 0.003322
59.283724 81.882996 -13.183040 -0.204290
61.760332 81.882996 -13.063488 -0.530202
64.236940 81.882996 -12.720603 -0.523580
66.713548 81.882996 -12.501175 -0.036982
69.190156 81.882996 -12.106185 -0.230790
71.666764 81.882996 -12.120001 -0.432365
74.143372 81.882996 -12.790553 -0.070583
76.619980 81.882996 -13.164486 0.454503
79.096588 81.882996 -12.135187 0.841107
81.573196 81.882996 -12.350351 1.182512
84.049804 81.882996 -13.469520 0.834241
86.526412 81.882996 -13.086543 1.085607
89.003020 81.882996 -13.025323 1.362734
91.479628 81.882996 -11.926791 0.599621
93.956236 81.882996 -12.121282 0.000709
96.432844 81.882996 -12.411382 0.638707
98.909452 81.882996 -12.782669 1.166606
101.386060 81.882996 -12.949503 1.091558
103.862668 81.882996 -12.976250 0.579885
106.339276 81.882996 -12.458545 0.376206
108.815884 81.882996 -11.779779 0.640491
111.292493 81.882996 -12.404616 1.273211
113.769101 81.882996 -12.815301 1.047263
116.245709 81.882996 -11.415581 1.287097
118.722317 81.882996 -12.141685 1.600815
121.198925 81.882996 -12.589421 0.461659
123.675533 81.882996 -12.310568 0.736296
126.152141 81.882996 -12.043367 0.810132
128.628749 81.882996 -12.298962 0.794579
131.105357 81.882996 -12.576356 1.182433
133.581965 81.882996 -12.640771 1.845306
136.058573 81.882996 -12.599196 2.536089
138.535181 81.882996 -12.487800 1.819057
141.011789 81.882996 -12.567698 0.091057
143.488397 81.882996 -12.809901 -0.295771
-39.780598 79.406388 -9.191321 -1.432136
-37.303990 79.406388 -11.273162 -0.889280
-34.827382 79.406388 -11.671668 -1.012617
-32.350774 79.406388 -11.542342 -0.862983
-29.874166 79.406388 -11.993872 -0.645047
-27.397558 79.406388 -11.792963 -0.547995
-24.920950 79.406388 -12.001359 -0.749696
-22.444342 79.406388 -12.516243 -0.998108
-19.967734 79.406388 -12.677921 -1.730637
-17.491125 79.406388 -12.485550 -1.393750
-15.014517 79.406388 -12.415641 -0.480523
-12.537909 79.406388 -12.678361 -0.753146
-10.061301 79.406388 -12.889263 -0.361286
-7.584693 79.406388 -13.192926 -0.582350
-5.108085 79.406388 -13.066697 -0.729643
-2.631477 79.406388 -12.248365 -0.344991
-0.154869 79.406388 -12.056525 -0.553241
2.321739 79.406388 -12.564932 -0.756985
4.798347 79.406388 -12.870742 -0.545795
7.274955 79.406388 -12.565496 -0.961817
9.751563 79.406388 -12.286145 -1.440230
12.228171 79.406388 -12.931772 -0.908811
14.704779 79.406388 -12.877904 -0.630606
17.181387 79.406388 -12.722212 -1.382709
19.657995 79.406388 -12.679250 -0.454421
22.134603 79.406388 -12.987932 -0.216314
24.611211 79.406388 -13.330834 -1.135442
27.087819 79.406388 -12.956274 -0.937526
29.564427 79.406388 -12.808862 -0.399311
32.041035 79.406388 -12.893433 -0.398717
34.517643 79.406388 -12.878642 -0.265003
36.994251 79.406388 -13.460964 -0.825161
39.470859 79.406388 -13.211527 -1.161762
41.947467 79.406388 -12.489319 -0.528714
44.424075 79.406388 -12.932570 -0.033529
46.900684 79.406388 -12.903006 0.192510
49.377292 79.406388 -12.836101 -0.143189
51.853900 79.406388 -13.015218 -0.346560
54.330508 79.406388 -13.189215 0.197824
56.807116 79.406388 -13.169337 0.261528
59.283724 79.406388 -13.203151 0.558468
61.760332 79.406388 -13.294294 0.313468
64.236940 79.406388 -13.302115 -0.484944
66.713548 79.406388 -12.891538 -0.403766
69.190156 79.406388 -12.889310 -0.280038
71.666764 79.406388 -12.832216 -0.263144
74.143372 79.406388 -13.017430 0.456370
76.619980 79.406388 -13.320706 0.595334
79.096588 79.406388 -12.834954 0.907458
81.573196 79.406388 -12.672666 1.204133
84.049804 79.406388 -13.151517 0.802869
86.526412 79.406388 -12.643135 0.610592
89.003020 79.406388 -12.719418 0.617896
91.479628 79.406388 -12.050071 0.398839
93.956236 79.406388 -12.223048 0.457989
96.432844 79.406388 -12.029654 1.007783
98.909452 79.406388 -12.286026 1.255495
101.386060 79.406388 -12.340439 1.686065
103.862668 79.406388 -11.925038 1.455806
106.339276 79.406388 -12.320445 1.513012
108.815884 79.406388 -12.245088 1.544432
111.292493 79.406388 -12.632926 1.218048
113.769101 79.406388 -12.668988 0.870561
116.245709 79.406388 -12.346503 0.460571
118.722317 79.406388 -12.570335 0.752861
121.198925 79.406388 -12.574732 1.766601
123.675533 79.406388 -12.079860 1.901144
126.152141 79.406388 -11.943260 0.688932
128.628749 79.406388 -12.142710 0.690305
131.105357 79.406388 -12.148419 1.458586
133.581965 79.406388 -12.154002 1.601519
136.058573 79.406388 -12.547038 2.022977
138.535181 79.406388 -12.708582 1.218882
141.011789 79.406388 -12.603174 0.836050
143.488397 79.406388 -12.701823 0.058814
-39.780598 76.929780 -11.973935 0.035663
-37.303990 76.929780 -12.670249 -0.009332
-34.827382 76.929780 -12.094326 -0.448596
-32.350774 76.929780 -11.514204 -0.918568
-29.874166 76.929780 -11.989952 -0.986425
-27.397558 76.929780 -12.405843 -0.653374
-24.920950 76.929780 -12.385062 -1.058685
-22.444342 76.929780 -12.309918 -0.809668
-19.967734 76.929780 -12.337949 -1.025934
-17.491125 76.929780 -12.440997 -1.183836
-15.014517 76.929780 -12.182777 -0.661224
-12.537909 76.929780 -12.633628 -0.293250
-10.061301 76.929780 -12.576583 -0.404024
-7.584693 76.929780 -12.666773 -0.549123
-5.108085 76.929780 -12.614824 -0.508341
-2.631477 76.929780 -12.377999 -0.576002
-0.154869 76.929780 -12.518820 -0.369270
2.321739 76.929780 -12.337159 -0.651153
4.798347 76.929780 -12.672568 -0.694518
7.274955 76.929780 -12.680363 -0.546636
9.751563 76.929780 -12.325936 -0.949407
12.228171 76.929780 -12.592305 -1.412488
14.704779 76.929780 -12.706975 -1.730112
17.181387 76.929780 -12.474077 -1.405161
19.657995 76.929780 -12.501720 -0.703807
22.134603 76.929780 -13.074627 -0.915227
24.611211 76.929780 -13.214644 -1.579039
27.087819 76.929780 -12.840868 -1.089451
29.564427 76.929780 -12.614951 -0.359830
32.041035 76.929780 -12.739439 -0.437145
34.517643 76.929780 -13.093109 -0.974933
36.994251 76.929780 -13.326916 -1.138256
39.470859 76.929780 -12.716797 -0.670080
41.947467 76.929780 -12.702522 -0.152372
44.424075 76.929780 -13.170651 -0.234648
46.900684 76.929780 -13.199419 -0.072193
49.377292 76.929780 -12.818035 0.154466
51.853900 76.929780 -12.639731 -0.211235
54.330508 76.929780 -12.973914 0.038339
56.807116 76.929780 -12.906689 0.124543
59.283724 76.929780 -12.971264 0.813882
61.760332 76.929780 -13.247335 0.812489
64.236940 76.929780 -13.401126 -0.336826
66.713548 76.929780 -13.157506 -0.064707
69.190156 76.929780 -13.319664 0.302988
71.666764 76.929780 -13.066973 0.176352
74.143372 76.929780 -12.667720 0.439557
76.619980 76.929780 -12.864093 0.469294
79.096588 76.929780 -13.077306 0.588870
81.573196 76.929780 -13.187629 0.757740
84.049804 76.929780 -12.918887 0.785389
86.526412 76.929780 -12.705100 0.361578
89.003020 76.929780 -12.661670 0.318968
91.479628 76.929780 -12.407404 0.592204
93.956236 76.929780 -12.534599 1.399593
96.432844 76.929780 -12.329103 1.146446
98.909452 76.929780 -12.283724 0.774363
101.386060 76.929780 -12.329215 1.324911
103.862668 76.929780 -11.454012 1.636761
106.339276 76.929780 -11.786587 1.603719
108.815884 76.929780 -12.311549 1.270060
111.292493 76.929780 -12.496363 0.666491
113.769101 76.929780 -12.358415 0.605441
116.245709 76.929780 -12.247948 0.340625
118.722317 76.929780 -11.525168 0.634148
121.198925 76.929780 -11.432454 1.868779
123.675533 76.929780 -11.434095 0.917457
126.152141 76.929780 -11.772813 0.449369
128.628749 76.929780 -11.984567 0.870891
131.105357 76.929780 -11.409304 1.156129
133.581965 76.929780 -11.836937 1.888016
136.058573 76.929780 -12.450216 1.817491
138.535181 76.929780 -12.216786 0.610487
141.011789 76.929780 -12.131386 0.582020
143.488397 76.929780 -11.869527 0.770101
-39.780598 74.453172 -12.480733 -0.452122
-37.303990 74.453172 -12.737672 0.073438
-34.827382 74.453172 -12.304986 0.099748
-32.350774 74.453172 -11.835221 -1.178448
-29.874166 74.453172 -11.758580 -1.306331
-27.397558 74.453172 -12.477953 -0.712370
-24.920950 74.453172 -12.711506 -0.878614
-22.444342 74.453172 -12.058463 -1.154873
-19.967734 74.453172 -12.266465 -0.892239
-17.491125 74.453172 -12.363331 -0.081300
-15.014517 74.453172 -12.382176 -0.142926
-12.537909 74.453172 -12.949271 -1.080951
-10.061301 74.453172 -12.521890 -1.299638
-7.584693 74.453172 -12.517744 -1.345604
-5.108085 74.453172 -12.135843 -1.103383
-2.631477 74.453172 -12.161206 -0.491947
-0.154869 74.453172 -12.483435 -0.344794
2.321739 74.453172 -12.155454 -0.673517
4.798347 74.453172 -12.735693 -0.244778
7.274955 74.453172 -12.994567 -0.233294
9.751563 74.453172 -12.714665 -0.714423
12.228171 74.453172 -12.124751 -0.910923
14.704779 74.453172 -12.635130 -0.956886
17.181387 74.453172 -12.702671 -1.136911
19.657995 74.453172 -12.795009 -1.370123
22.134603 74.453172 -13.395849 -1.568898
24.611211 74.453172 -13.309535 -1.445223
27.087819 74.453172 -13.106537 -0.790919
29.564427 74.453172 -12.401382 -0.789818
32.041035 74.453172 -12.065810 -0.906237
34.517643 74.453172 -13.491320 -1.119931
36.994251 74.453172 -13.478241 -1.109272
39.470859 74.453172 -12.629729 -0.726191
41.947467 74.453172 -13.047309 -0.546904
44.424075 74.453172 -13.247859 -0.539320
46.900684 74.453172 -13.113157 -0.175872
49.377292 74.453172 -12.781024 0.204401
51.853900 74.453172 -12.594756 -0.045722
54.330508 74.453172 -12.598913 -0.162765
56.807116 74.453172 -12.665572 -0.524973
59.283724 74.453172 -12.806898 0.151310
61.760332 74.453172 -13.256471 0.599194
64.236940 74.453172 -13.709180 0.103742
66.713548 74.453172 -13.357091 0.630178
69.190156 74.453172 -13.194287 0.684037
71.666764 74.453172 -13.030732 0.380340
74.143372 74.453172 -12.386966 0.467135
76.619980 74.453172 -12.697624 0.905238
79.096588 74.453172 -13.083153 1.049038
81.573196 74.453172 -13.137957 1.195776
84.049804 74.453172 -12.760423 1.368856
86.526412 74.453172 -12.808829 0.928100
89.003020 74.453172 -12.848262 0.700491
91.479628 74.453172 -12.338718 1.051754
93.956236 74.453172 -12.613519 1.440709
96.432844 74.453172 -13.045246 0.466409
98.909452 74.453172 -12.687530 0.599468
101.386060 74.453172 -12.477244 1.371149
103.862668 74.453172 -12.374850 1.385207
106.339276 74.453172 -12.102700 1.179186
108.815884 74.453172 -12.503214 0.811905
111.292493 74.453172 -12.340939 0.397827
113.769101 74.453172 -12.082505 0.015962
116.245709 74.453172 -11.663967 0.548665
118.722317 74.453172 -10.038507 1.534343
121.198925 74.453172 -10.924824 1.519304
123.675533 74.453172 -11.778107 0.485609
126.152141 74.453172 -12.169280 0.674404
128.628749 74.453172 -12.063404 1.580121
131.105357 74.453172 -10.928482 0.720756
133.581965 74.453172 -11.242149 0.787195
136.058573 74.453172 -11.897512 0.480838
138.535181 74.453172 -12.114224 0.221167
141.011789 74.453172 -11.964957 0.882202
143.488397 74.453172 -11.330353 1.223597
-39.780598 71.976564 -12.010903 -0.699075
-37.303990 71.976564 -12.044875 -0.426951
-34.827382 71.976564 -11.760298 -0.149488
-32.350774 71.976564 -11.880452 -0.535347
-29.874166 71.976564 -11.811156 -1.227061
-27.397558 71.976564 -11.989480 -1.202015
-24.920950 71.976564 -12.067382 -0.753251
-22.444342 71.976564 -11.266343 -1.336787
-19.967734 71.976564 -11.985768 -1.029906
-17.491125 71.976564 -12.097751 0.309459
-15.014517 71.976564 -11.857707 -0.062272
-12.537909 71.976564 -12.706011 -0.966263
-10.061301 71.976564 -12.290927 -1.153864
-7.584693 71.976564 -12.622590 -1.461497
-5.108085 71.976564 -12.468351 -1.349229
-2.631477 71.976564 -12.424098 -0.684291
-0.154869 71.976564 -12.450606 -0.372061
2.321739 71.976564 -12.489533 -0.604961
4.798347 71.976564 -12.566622 -1.001948
7.274955 71.976564 -12.851046 -1.160808
9.751563 71.976564 -12.485856 -1.227236
12.228171 71.976564 -12.140515 -0.837936
14.704779 71.976564 -12.796877 -0.572664
17.181387 71.976564 -13.078939 -0.865670
19.657995 71.976564 -12.768246 -1.141975
22.134603 71.976564 -13.307982 -1.080285
24.611211 71.976564 -13.471399 -0.427368
27.087819 71.976564 -13.454375 -0.360965
29.564427 71.976564 -12.784697 -0.863812
32.041035 71.976564 -12.077291 -1.142630
34.517643 71.976564 -13.252737 -1.132988
36.994251 71.976564 -13.465306 -0.959717
39.470859 71.976564 -12.958218 -0.960352
41.947467 71.976564 -12.889746 -0.671339
44.424075 71.976564 -13.061643 -0.719276
46.900684 71.976564 -12.887633 -0.651939
49.377292 71.976564 -13.260742 -0.123418
51.853900 71.976564 -13.126573 -0.022860
54.330508 71.976564 -12.675758 -0.233323
56.807116 71.976564 -12.489102 -0.310132
59.283724 71.976564 -12.676750 0.199608
61.760332 71.976564 -13.448405 0.230921
64.236940 71.976564 -13.909364 0.402374
66.713548 71.976564 -13.506825 0.661932
69.190156 71.976564 -12.813942 0.255030
71.666764 71.976564 -12.375523 0.484421
74.143372 71.976564 -12.789145 0.721071
76.619980 71.976564 -13.253748 0.932603
79.096588 71.976564 -12.861030 1.134880
81.573196 71.976564 -12.595345 1.334928
84.049804 71.976564 -12.534466 1.446115
86.526412 71.976564 -12.327652 1.019051
89.003020 71.976564 -12.655904 0.922201
91.479628 71.976564 -12.244644 0.975833
93.956236 71.976564 -11.060986 0.703009
96.432844 71.976564 -12.923444 0.951412
98.909452 71.976564 -12.973079 0.854217
101.386060 71.976564 -12.238348 0.632573
103.862668 71.976564 -11.464264 1.259428
106.339276 71.976564 -12.631331 1.032398
108.815884 71.976564 -12.670640 0.791652
111.292493 71.976564 -12.033608 0.775842
113.769101 71.976564 -12.160230 0.082230
116.245709 71.976564 -12.032120 0.393611
118.722317 71.976564 -10.357281 1.025814
121.198925 71.976564 -11.674979 0.862149
123.675533 71.976564 -12.110463 0.667013
126.152141 71.976564 -12.393403 0.761663
128.628749 71.976564 -12.283860 1.249660
131.105357 71.976564 -11.385999 0.826018
133.581965 71.976564 -10.749444 0.762090
136.058573 71.976564 -10.770693 0.735040
138.535181 71.976564 -11.505461 0.818645
141.011789 71.976564 -11.985179 1.203619
143.488397 71.976564 -11.395100 1.205833
-39.780598 69.499956 -11.620305 -0.450910
-37.303990 69.499956 -12.140943 -0.187859
-34.827382 69.499956 -11.533701 0.016994
-32.350774 69.499956 -12.000836 0.172980
-29.874166 69.499956 -11.524510 -0.325401
-27.397558 69.499956 -11.435244 -1.033240
-24.920950 69.499956 -11.844003 -1.316959
-22.444342 69.499956 -10.919546 -1.221245
-19.967734 69.499956 -11.989309 -0.867139
-17.491125 69.499956 -11.865385 -0.739408
-15.014517 69.499956 -11.577509 -0.895527
-12.537909 69.499956 -12.223868 -0.855719
-10.061301 69.499956 -11.464361 -0.171399
-7.584693 69.499956 -11.628463 -0.226788
-5.108085 69.499956 -12.687340 -1.060528
-2.631477 69.499956 -13.149001 -1.077749
-0.154869 69.499956 -13.127058 -0.629802
2.321739 69.499956 -12.963846 -1.048115
4.798347 69.499956 -12.803440 -1.515085
7.274955 69.499956 -13.177200 -1.378735
9.751563 69.499956 -13.237331 -1.048891
12.228171 69.499956 -12.869716 -0.897356
14.704779 69.499956 -13.190840 -1.218049
17.181387 69.499956 -13.534944 -0.988891
19.657995 69.499956 -12.971246 -0.886126
22.134603 69.499956 -12.718521 -1.004296
24.611211 69.499956 -12.907006 -0.636574
27.087819 69.499956 -13.136739 -0.705134
29.564427 69.499956 -12.646861 -1.222402
32.041035 69.499956 -12.293773 -1.375657
34.517643 69.499956 -13.016494 -1.075618
36.994251 69.499956 -13.492700 -0.422071
39.470859 69.499956 -13.304209 -0.598064
41.947467 69.499956 -13.181839 -1.067795
44.424075 69.499956 -13.290673 -0.898728
46.900684 69.499956 -13.049555 -0.487953
49.377292 69.499956 -13.351371 -0.315174
51.853900 69.499956 -13.444459 -0.339512
54.330508 69.499956 -12.955530 -0.499532
56.807116 69.499956 -12.564397 -0.202396
59.283724 69.499956 -13.044770 0.328237
61.760332 69.499956 -13.755285 0.424127
64.236940 69.499956 -13.429937 0.368533
66.713548 69.499956 -13.231289 0.031537
69.190156 69.499956 -12.740075 -0.050761
71.666764 69.499956 -12.310014 0.506563
74.143372 69.499956 -12.949642 0.762358
76.619980 69.499956 -13.218106 0.492275
79.096588 69.499956 -12.565021 0.760884
81.573196 69.499956 -12.434187 0.957670
84.049804 69.499956 -12.897527 1.155034
86.526412 69.499956 -12.618864 1.132292
89.003020 69.499956 -12.662494 1.110979
91.479628 69.499956 -12.905491 1.224201
93.956236 69.499956 -11.159154 1.205164
96.432844 69.499956 -12.782228 1.925766
98.909452 69.499956 -13.105783 1.347163
101.386060 69.499956 -12.791228 0.619704
103.862668 69.499956 -10.602804 1.026795
106.339276 69.499956 -12.026247 1.331614
108.815884 69.499956 -12.231246 1.135823
111.292493 69.499956 -11.570446 1.204483
113.769101 69.499956 -12.054083 1.325398
116.245709 69.499956 -12.056921 1.068375
118.722317 69.499956 -10.048290 0.686480
121.198925 69.499956 -11.404794 0.697814
123.675533 69.499956 -11.601527 0.850905
126.152141 69.499956 -11.951649 1.165245
128.628749 69.499956 -12.137171 1.980183
131.105357 69.499956 -11.616673 2.382223
133.581965 69.499956 -11.233558 1.696059
136.058573 69.499956 -11.073663 1.239531
138.535181 69.499956 -11.335793 1.445985
141.011789 69.499956 -11.903611 1.594971
143.488397 69.499956 -11.638581 1.649456
-39.780598 67.023347 -10.518010 -0.365267
-37.303990 67.023347 -11.014435 -0.890012
-34.827382 67.023347 -11.450615 -0.816663
-32.350774 67.023347 -11.894733 -0.277858
-29.874166 67.023347 -11.665527 -0.953042
-27.397558 67.023347 -11.552732 -1.600965
-24.920950 67.023347 -12.323067 -1.629687
-22.444342 67.023347 -11.979449 -1.284293
-19.967734 67.023347 -12.068891 -0.906206
-17.491125 67.023347 -11.981392 -0.927983
-15.014517 67.023347 -12.270907 -1.280957
-12.537909 67.023347 -11.958183 -1.097444
-10.061301 67.023347 -11.451374 -0.011797
-7.584693 67.023347 -11.941398 -0.195520
-5.108085 67.023347 -11.908424 -1.186234
-2.631477 67.023347 -11.979133 -1.311414
-0.154869 67.023347 -12.701944 -1.220594
2.321739 67.023347 -12.876436 -1.263681
4.798347 67.023347 -13.073077 -1.081156
7.274955 67.023347 -12.853807 -0.925252
9.751563 67.023347 -13.172306 -0.968966
12.228171 67.023347 -12.424263 -1.122093
14.704779 67.023347 -12.543298 -1.285872
17.181387 67.023347 -13.463848 -0.880860
19.657995 67.023347 -12.969822 -1.248672
22.134603 67.023347 -12.163616 -1.442313
24.611211 67.023347 -13.031880 -1.081674
27.087819 67.023347 -12.869841 -1.205985
29.564427 67.023347 -12.457661 -1.219227
32.041035 67.023347 -12.691964 -0.908025
34.517643 67.023347 -13.150529 -0.555564
36.994251 67.023347 -13.215902 -0.639021
39.470859 67.023347 -13.370202 -0.962534
41.947467 67.023347 -13.578108 -1.191585
44.424075 67.023347 -13.316228 -0.773352
46.900684 67.023347 -12.930934 -0.017608
49.377292 67.023347 -12.932747 -0.208732
51.853900 67.023347 -13.490238 -0.556170
54.330508 67.023347 -13.068187 -0.526031
56.807116 67.023347 -13.014604 -0.145287
59.283724 67.023347 -13.297368 0.331626
61.760332 67.023347 -13.545644 0.358012
64.236940 67.023347 -13.099253 0.528296
66.713548 67.023347 -12.857835 0.175429
69.190156 67.023347 -13.064051 0.060003
71.666764 67.023347 -12.941896 0.808284
74.143372 67.023347 -13.157891 1.091400
76.619980 67.023347 -13.356438 0.818105
79.096588 67.023347 -12.927486 0.713819
81.573196 67.023347 -12.944893 0.617079
84.049804 67.023347 -13.455479 0.821649
86.526412 67.023347 -13.096124 1.293681
89.003020 67.023347 -13.052919 1.473466
91.479628 67.023347 -13.242812 1.482376
93.956236 67.023347 -12.228408 1.451833
96.432844 67.023347 -12.855300 1.690925
98.909452 67.023347 -12.924435 1.333322
101.386060 67.023347 -12.838557 1.599021
103.862668 67.023347 -11.628688 2.004348
106.339276 67.023347 -11.741722 1.916312
108.815884 67.023347 -12.349440 1.474028
111.292493 67.023347 -12.286394 1.264467
113.769101 67.023347 -11.671199 1.519186
116.245709 67.023347 -11.647706 1.715606
118.722317 67.023347 -10.891915 1.544982
121.198925 67.023347 -10.960222 0.800157
123.675533 67.023347 -11.673623 0.770815
126.152141 67.023347 -11.503947 1.262810
128.628749 67.023347 -11.227887 2.130129
131.105357 67.023347 -11.601692 2.292433
133.581965 67.023347 -11.357709 1.806788
136.058573 67.023347 -11.759165 0.643346
138.535181 67.023347 -11.654515 0.315891
141.011789 67.023347 -11.826318 0.649496
143.488397 67.023347 -11.136597 0.757998
-39.780598 64.546739 -10.824580 -1.906802
-37.303990 64.546739 -10.973623 -1.896706
-34.827382 64.546739 -11.973761 -1.276141
-32.350774 64.546739 -11.888756 -1.226157
-29.874166 64.546739 -11.814903 -2.008041
-27.397558 64.546739 -12.079181 -2.177985
-24.920950 64.546739 -12.785602 -1.497643
-22.444342 64.546739 -12.343044 -1.045799
-19.967734 64.546739 -12.172598 -0.554692
-17.491125 64.546739 -12.658902 -0.911266
-15.014517 64.546739 -12.395452 -1.157435
-12.537909 64.546739 -11.894455 -0.766289
-10.061301 64.546739 -12.365245 0.308063
-7.584693 64.546739 -13.084154 -0.197060
-5.108085 64.546739 -12.756851 -1.397994
-2.631477 64.546739 -11.885801 -1.875608
-0.154869 64.546739 -12.258457 -1.800473
2.321739 64.546739 -12.478257 -1.032376
4.798347 64.546739 -12.215917 -1.226619
7.274955 64.546739 -12.256326 -1.371235
9.751563 64.546739 -12.370090 -1.099448
12.228171 64.546739 -11.920960 -1.256832
14.704779 64.546739 -12.244541 -1.479728
17.181387 64.546739 -12.820655 -0.958660
19.657995 64.546739 -12.957590 -0.724484
22.134603 64.546739 -12.687424 -0.966480
24.611211 64.546739 -13.131588 -1.333264
27.087819 64.546739 -13.335399 -1.391832
29.564427 64.546739 -13.351381 -1.181585
32.041035 64.546739 -13.296160 -0.681157
34.517643 64.546739 -13.013101 -0.154579
36.994251 64.546739 -12.692295 -0.471140
39.470859 64.546739 -12.710643 -0.802135
41.947467 64.546739 -13.323310 -0.631133
44.424075 64.546739 -13.130276 -0.726973
46.900684 64.546739 -12.854522 -0.342092
49.377292 64.546739 -12.784233 -0.215257
51.853900 64.546739 -13.307897 -0.409544
54.330508 64.546739 -13.079359 0.016778
56.807116 64.546739 -12.987134 0.265265
59.283724 64.546739 -13.580789 -0.286445
61.760332 64.546739 -13.474085 -0.341873
64.236940 64.546739 -13.238773 0.465468
66.713548 64.546739 -13.284494 0.282031
69.190156 64.546739 -13.271092 0.178055
71.666764 64.546739 -13.244486 0.715086
74.143372 64.546739 -13.293745 0.944688
76.619980 64.546739 -13.529380 1.234302
79.096588 64.546739 -13.308592 0.975674
81.573196 64.546739 -13.148086 0.906404
84.049804 64.546739 -13.570487 0.826623
86.526412 64.546739 -12.750943 0.937473
89.003020 64.546739 -12.836652 1.381560
91.479628 64.546739 -13.408408 1.383422
93.956236 64.546739 -12.518466 1.282135
96.432844 64.546739 -12.921485 1.334243
98.909452 64.546739 -12.823595 1.621451
101.386060 64.546739 -12.455543 1.846322
103.862668 64.546739 -11.927097 1.990320
106.339276 64.546739 -11.804858 1.970526
108.815884 64.546739 -12.603347 1.461616
111.292493 64.546739 -12.343214 0.853282
113.769101 64.546739 -11.707136 1.038481
116.245709 64.546739 -11.817196 1.704965
118.722317 64.546739 -11.860083 2.129591
121.198925 64.546739 -11.064913 2.292898
123.675533 64.546739 -11.378011 1.546772
126.152141 64.546739 -11.616257 1.124764
128.628749 64.546739 -11.169067 1.148296
131.105357 64.546739 -11.324128 0.363859
133.581965 64.546739 -10.955116 0.967264
136.058573 64.546739 -11.634331 0.676480
138.535181 64.546739 -11.713229 0.270144
141.011789 64.546739 -11.435400 0.827808
143.488397 64.546739 -11.030214 0.486282
-39.780598 62.070131 -11.973552 -1.666914
-37.303990 62.070131 -12.060883 -2.108800
-34.827382 62.070131 -12.244963 -2.190336
-32.350774 62.070131 -11.743545 -1.853506
-29.874166 62.070131 -12.114519 -1.450965
-27.397558 62.070131 -12.193081 -1.276888
-24.920950 62.070131 -12.340606 -0.962365
-22.444342 62.070131 -12.179727 -0.447788
-19.967734 62.070131 -12.143925 -0.762946
-17.491125 62.070131 -12.576939 -1.071917
-15.014517 62.070131 -12.458717 -0.755241
-12.537909 62.070131 -12.500561 -0.570226
-10.061301 62.070131 -13.133909 -0.502782
-7.584693 62.070131 -12.719174 -0.744844
-5.108085 62.070131 -12.881920 -1.485807
-2.631477 62.070131 -13.043041 -2.170586
-0.154869 62.070131 -13.043410 -2.006220
2.321739 62.070131 -12.699499 -1.061200
4.798347 62.070131 -12.108296 -1.057239
7.274955 62.070131 -12.755045 -1.474224
9.751563 62.070131 -13.102712 -1.533350
12.228171 62.070131 -12.900159 -1.777825
14.704779 62.070131 -12.846017 -1.511208
17.181387 62.070131 -12.483767 -0.802267
19.657995 62.070131 -13.106604 -0.514040
22.134603 62.070131 -13.312393 -0.729721
24.611211 62.070131 -13.019027 -1.262806
27.087819 62.070131 -12.730702 -1.215959
29.564427 62.070131 -12.758967 -1.042530
32.041035 62.070131 -13.224113 -0.685783
34.517643 62.070131 -13.204417 -0.595036
36.994251 62.070131 -12.909606 -0.583480
39.470859 62.070131 -12.620030 -0.491301
41.947467 62.070131 -12.923147 -0.705951
44.424075 62.070131 -13.276249 -0.760477
46.900684 62.070131 -13.305627 -0.958627
49.377292 62.070131 -13.326534 -0.875748
51.853900 62.070131 -13.469197 -0.370124
54.330508 62.070131 -13.338508 -0.072650
56.807116 62.070131 -13.140103 0.101498
59.283724 62.070131 -13.470445 -0.190564
61.760332 62.070131 -13.682576 -0.054665
64.236940 62.070131 -13.338923 0.359462
66.713548 62.070131 -13.314937 -0.078523
69.190156 62.070131 -13.039640 -0.026186
71.666764 62.070131 -12.919850 0.534181
74.143372 62.070131 -13.248659 0.578357
76.619980 62.070131 -13.178743 1.029975
79.096588 62.070131 -13.013860 0.955314
81.573196 62.070131 -12.982844 1.036765
84.049804 62.070131 -13.310000 1.302558
86.526412 62.070131 -12.823614 1.172989
89.003020 62.070131 -12.601708 1.583421
91.479628 62.070131 -13.215470 1.735233
93.956236 62.070131 -12.493540 1.784465
96.432844 62.070131 -12.365698 1.797497
98.909452 62.070131 -12.792376 1.652799
101.386060 62.070131 -12.668462 1.869770
103.862668 62.070131 -11.588311 2.006269
106.339276 62.070131 -11.558233 2.497360
108.815884 62.070131 -12.289882 2.090702
111.292493 62.070131 -11.805845 1.766286
113.769101 62.070131 -11.932455 1.735002
116.245709 62.070131 -12.020148 1.494764
118.722317 62.070131 -11.665717 1.491277
121.198925 62.070131 -9.260130 1.760592
123.675533 62.070131 -9.859835 1.076209
126.152141 62.070131 -11.971217 1.225773
128.628749 62.070131 -11.907334 1.184481
131.105357 62.070131 -11.340184 0.659142
133.581965 62.070131 -10.840342 1.526096
136.058573 62.070131 -11.434532 1.821571
138.535181 62.070131 -11.657087 1.822648
141.011789 62.070131 -11.779307 1.258053
143.488397 62.070131 -11.867750 0.524458
-39.780598 59.593523 -11.371765 -0.103619
-37.303990 59.593523 -11.372869 -1.660738
-34.827382 59.593523 -11.458655 -1.933381
-32.350774 59.593523 -11.535100 -1.825372
-29.874166 59.593523 -12.557511 -1.288033
-27.397558 59.593523 -12.118309 -0.680757
-24.920950 59.593523 -11.549953 -1.445767
-22.444342 59.593523 -11.926121 -1.377243
-19.967734 59.593523 -11.999042 -1.014603
-17.491125 59.593523 -11.646409 -0.736484
-15.014517 59.593523 -12.439827 -0.182337
-12.537909 59.593523 -12.134413 -0.403226
-10.061301 59.593523 -12.666588 -1.100285
-7.584693 59.593523 -12.417594 -1.496872
-5.108085 59.593523 -11.783942 -1.620138
-2.631477 59.593523 -12.421559 -1.396890
-0.154869 59.593523 -13.076614 -1.321299
2.321739 59.593523 -12.844501 -1.526167
4.798347 59.593523 -12.196876 -1.229066
7.274955 59.593523 -12.673608 -1.537417
9.751563 59.593523 -13.330357 -1.486599
12.228171 59.593523 -13.063365 -1.345083
14.704779 59.593523 -12.387510 -0.870216
17.181387 59.593523 -12.765775 -0.647320
19.657995 59.593523 -13.143607 -1.479163
22.134603 59.593523 -13.600188 -1.676424
24.611211 59.593523 -13.218719 -1.008442
27.087819 59.593523 -12.315991 -0.922518
29.564427 59.593523 -12.387594 -0.986227
32.041035 59.593523 -13.256186 -0.874871
34.517643 59.593523 -13.273769 -1.206355
36.994251 59.593523 -13.079035 -0.887604
39.470859 59.593523 -13.106340 -0.622438
41.947467 59.593523 -13.289869 -0.862778
44.424075 59.593523 -13.443830 -0.607452
46.900684 59.593523 -13.945569 -1.071777
49.377292 59.593523 -13.950452 -0.956091
51.853900 59.593523 -13.627110 -0.258979
54.330508 59.593523 -13.519236 -0.476789
56.807116 59.593523 -13.564598 -0.612105
59.283724 59.593523 -13.119684 -0.403045
61.760332 59.593523 -13.405554 0.202823
64.236940 59.593523 -13.390710 0.071636
66.713548 59.593523 -13.037216 -0.390272
69.190156 59.593523 -13.267268 0.334533
71.666764 59.593523 -13.034598 1.166943
74.143372 59.593523 -13.130140 1.240554
76.619980 59.593523 -13.318363 1.184810
79.096588 59.593523 -13.323764 0.920377
81.573196 59.593523 -13.707222 1.518733
84.049804 59.593523 -13.233961 1.965646
86.526412 59.593523 -12.938557 1.532774
89.003020 59.593523 -12.767956 1.752245
91.479628 59.593523 -12.884387 1.907124
93.956236 59.593523 -12.400334 2.042433
96.432844 59.593523 -12.140855 1.868814