TITLE = "B00087"
VARIABLES = "position", "position(2)", "Vx", "Vy"
ZONE T="Frame 0", I=75, J=50
-39.780598 81.882996 -12.934388 -0.680867
-37.303990 81.882996 -11.928922 -0.596390
-34.827382 81.882996 -11.565999 -1.251403
-32.350774 81.882996 -11.628683 -0.285434
-29.874166 81.882996 -12.228307 -0.232725
-27.397558 81.882996 -12.502979 -1.224873
-24.920950 81.882996 -13.040813 -1.448735
-22.444342 81.882996 -12.117444 -0.380238
-19.967734 81.882996 -11.402235 -0.279356
-17.491125 81.882996 -13.109699 -1.846538
-15.014517 81.882996 -12.858392 -1.970632
-12.537909 81.882996 -12.609694 -0.878719
-10.061301 81.882996 -12.407326 -1.074429
-7.584693 81.882996 -12.507943 -1.153021
-5.108085 81.882996 -12.507575 -0.990268
-2.631477 81.882996 -12.932138 -0.911405
-0.154869 81.882996 -12.739049 -0.854217
2.321739 81.882996 -12.980431 -0.685216
4.798347 81.882996 -13.297978 -0.834369
7.274955 81.882996 -12.826856 -0.102350
9.751563 81.882996 -13.271638 0.215839
12.228171 81.882996 -12.955647 -0.252105
14.704779 81.882996 -12.307187 -0.366935
17.181387 81.882996 -13.193221 -0.609595
19.657995 81.882996 -13.133325 -1.363444
22.134603 81.882996 -13.337204 -0.902826
24.611211 81.882996 -13.761228 -0.091339
27.087819 81.882996 -12.800240 -1.063361
29.564427 81.882996 -12.734309 -1.347870
32.041035 81.882996 -13.476887 0.070213
34.517643 81.882996 -13.407823 0.549438
36.994251 81.882996 -12.956322 0.372496
39.470859 81.882996 -12.606704 0.159800
41.947467 81.882996 -12.964451 -0.117881
44.424075 81.882996 -13.320699 0.250188
46.900684 81.882996 -13.135607 0.110102
49.377292 81.882996 -13.223511 -0.657080
51.853900 81.882996 -13.196164 -0.525123
54.330508 81.882996 -13.021235 -0.258340
56.807116 81.882996 -13.469909 -0.186957
59.283724 81.882996 -13.454956 0.028730
61.760332 81.882996 -13.081756 0.447726
64.236940 81.882996 -13.171127 0.708848
66.713548 81.882996 -13.213143 0.448148
69.190156 81.882996 -13.329909 0.373921
71.666764 81.882996 -12.947457 0.352626
74.143372 81.882996 -12.749556 0.306380
76.619980 81.882996 -13.098478 0.377869
79.096588 81.882996 -13.154744 0.820200
81.573196 81.882996 -12.720654 0.692293
84.049804 81.882996 -12.445734 0.609869
86.526412 81.882996 -12.992805 1.274529
89.003020 81.882996 -12.481960 1.252868
91.479628 81.882996 -11.805864 1.511512
93.956236 81.882996 -12.089143 0.723505
96.432844 81.882996 -12.353912 0.833628
98.909452 81.882996 -12.290791 1.119624
101.386060 81.882996 -11.153715 0.993585
103.862668 81.882996 -11.752475 0.802126
106.339276 81.882996 -12.697857 1.168927
108.815884 81.882996 -12.824109 1.417244
111.292493 81.882996 -12.066255 0.685341
113.769101 81.882996 -12.064178 1.260030
116.245709 81.882996 -10.802263 1.211441
118.722317 81.882996 -11.685095 1.348130
121.198925 81.882996 -11.790896 1.642928
123.675533 81.882996 -11.466200 0.992535
126.152141 81.882996 -11.277102 0.659758
128.628749 81.882996 -12.135742 1.365750
131.105357 81.882996 -11.992332 1.315906
133.581965 81.882996 -11.574366 0.960524
136.058573 81.882996 -12.252807 0.989598
138.535181 81.882996 -12.731087 0.102246
141.011789 81.882996 -13.101618 -0.350838
143.488397 81.882996 -13.113518 1.347983
-39.780598 79.406388 -11.624090 1.082664
-37.303990 79.406388 -11.932358 -1.034632
-34.827382 79.406388 -11.719201 -1.748127
-32.350774 79.406388 -12.191103 -0.087787
-29.874166 79.406388 -12.243002 -0.012519
-27.397558 79.406388 -12.344247 -0.278182
-24.920950 79.406388 -12.864898 -0.475898
-22.444342 79.406388 -12.484171 0.159002
-19.967734 79.406388 -12.198822 -0.135981
-17.491125 79.406388 -13.334016 -1.545995
-15.014517 79.406388 -13.377891 -2.119793
-12.537909 79.406388 -12.798642 -1.664097
-10.061301 79.406388 -12.375744 -1.288960
-7.584693 79.406388 -12.151042 -0.593140
-5.108085 79.406388 -12.360838 -0.467016
-2.631477 79.406388 -12.632724 -0.601128
-0.154869 79.406388 -12.370084 -0.496049
2.321739 79.406388 -12.845338 -1.105847
4.798347 79.406388 -12.972368 -1.527574
7.274955 79.406388 -12.435311 -0.649767
9.751563 79.406388 -12.740142 -0.449514
12.228171 79.406388 -12.622347 -0.480354
14.704779 79.406388 -12.694101 -0.306964
17.181387 79.406388 -13.092951 -0.974420
19.657995 79.406388 -12.828613 -1.543387
22.134603 79.406388 -13.078002 -0.849344
24.611211 79.406388 -13.724740 -0.462680
27.087819 79.406388 -13.358359 -0.828640
29.564427 79.406388 -12.887182 -0.634214
32.041035 79.406388 -13.065673 0.050520
34.517643 79.406388 -13.125445 0.063787
36.994251 79.406388 -12.874468 -0.203280
39.470859 79.406388 -12.460542 -0.204862
41.947467 79.406388 -13.240069 -0.082474
44.424075 79.406388 -13.157842 0.064640
46.900684 79.406388 -12.912641 -0.048367
49.377292 79.406388 -13.334023 -0.248868
51.853900 79.406388 -13.018679 -0.230539
54.330508 79.406388 -12.938715 -0.143701
56.807116 79.406388 -13.258328 0.116514
59.283724 79.406388 -13.074158 0.192906
61.760332 79.406388 -12.758205 0.207888
64.236940 79.406388 -13.201277 0.573515
66.713548 79.406388 -13.331061 0.359845
69.190156 79.406388 -13.411023 0.191321
71.666764 79.406388 -12.873654 0.440981
74.143372 79.406388 -12.617376 0.231238
76.619980 79.406388 -13.152877 0.256980
79.096588 79.406388 -13.236460 0.887802
81.573196 79.406388 -12.905664 0.738994
84.049804 79.406388 -12.553094 0.723780
86.526412 79.406388 -12.441864 1.365485
89.003020 79.406388 -12.442565 1.214374
91.479628 79.406388 -11.997540 1.035598
93.956236 79.406388 -12.188544 1.606690
96.432844 79.406388 -12.479881 1.606819
98.909452 79.406388 -12.470710 1.372756
101.386060 79.406388 -12.495693 1.106302
103.862668 79.406388 -12.481977 1.235953
106.339276 79.406388 -12.894855 1.419766
108.815884 79.406388 -12.751297 1.455370
111.292493 79.406388 -12.006887 0.779538
113.769101 79.406388 -12.385730 1.200010
116.245709 79.406388 -11.959051 1.503255
118.722317 79.406388 -11.630238 0.861988
121.198925 79.406388 -12.041461 0.612809
123.675533 79.406388 -11.815806 0.513745
126.152141 79.406388 -12.096041 0.538369
128.628749 79.406388 -11.756135 0.699186
131.105357 79.406388 -11.369859 0.732588
133.581965 79.406388 -11.696447 0.786143
136.058573 79.406388 -12.411130 0.818420
138.535181 79.406388 -12.226604 1.064026
141.011789 79.406388 -11.617153 1.327604
143.488397 79.406388 -12.443350 1.075205
-39.780598 76.929780 -11.411819 -1.205231
-37.303990 76.929780 -11.315339 -0.863064
-34.827382 76.929780 -11.810800 -0.646495
-32.350774 76.929780 -12.544420 -0.632342
-29.874166 76.929780 -12.413765 -0.227906
-27.397558 76.929780 -12.109789 -1.086921
-24.920950 76.929780 -11.863910 -1.750112
-22.444342 76.929780 -12.238139 -0.980693
-19.967734 76.929780 -12.537029 -1.255421
-17.491125 76.929780 -13.015082 -1.801699
-15.014517 76.929780 -12.467079 -1.971636
-12.537909 76.929780 -12.568944 -1.624992
-10.061301 76.929780 -12.246436 -1.176098
-7.584693 76.929780 -12.061486 -1.015238
-5.108085 76.929780 -12.822841 -0.552954
-2.631477 76.929780 -12.718054 -0.280885
-0.154869 76.929780 -12.430246 -0.352581
2.321739 76.929780 -12.414672 -1.318037
4.798347 76.929780 -12.263633 -2.038527
7.274955 76.929780 -12.686757 -1.856448
9.751563 76.929780 -12.503145 -1.511603
12.228171 76.929780 -12.679537 -0.690649
14.704779 76.929780 -13.352576 -0.508567
17.181387 76.929780 -13.280218 -1.170325
19.657995 76.929780 -12.593357 -1.141352
22.134603 76.929780 -12.592254 -0.623138
24.611211 76.929780 -13.513102 -0.861896
27.087819 76.929780 -13.596306 -0.856981
29.564427 76.929780 -13.149246 -0.385692
32.041035 76.929780 -13.077526 0.263426
34.517643 76.929780 -12.988263 0.211873
36.994251 76.929780 -12.765182 -0.621801
39.470859 76.929780 -12.969533 -0.560014
41.947467 76.929780 -13.431812 -0.142926
44.424075 76.929780 -13.134121 -0.062156
46.900684 76.929780 -13.264736 0.088297
49.377292 76.929780 -13.168738 0.086231
51.853900 76.929780 -12.668159 -0.175082
54.330508 76.929780 -12.989655 -0.127902
56.807116 76.929780 -13.203014 0.018589
59.283724 76.929780 -13.053952 0.048390
61.760332 76.929780 -13.089423 0.399056
64.236940 76.929780 -13.050979 0.634503
66.713548 76.929780 -13.093411 0.704369
69.190156 76.929780 -13.235890 0.743202
71.666764 76.929780 -13.164604 0.560904
74.143372 76.929780 -13.084487 0.210875
76.619980 76.929780 -13.282699 0.211807
79.096588 76.929780 -13.299092 1.038522
81.573196 76.929780 -12.893582 1.393739
84.049804 76.929780 -12.540167 0.619955
86.526412 76.929780 -12.486233 0.767955
89.003020 76.929780 -12.736507 1.155210
91.479628 76.929780 -12.486678 0.742607
93.956236 76.929780 -12.320682 0.333027
96.432844 76.929780 -13.105656 -0.083544
98.909452 76.929780 -13.000930 0.395474
101.386060 76.929780 -12.909753 1.531458
103.862668 76.929780 -12.659382 1.244596
106.339276 76.929780 -12.226083 1.150436
108.815884 76.929780 -11.825367 1.238364
111.292493 76.929780 -11.850711 0.669691
113.769101 76.929780 -12.038605 0.897818
116.245709 76.929780 -11.950232 1.125668
118.722317 76.929780 -11.590296 0.574104
121.198925 76.929780 -12.039284 0.261907
123.675533 76.929780 -12.343115 0.923059
126.152141 76.929780 -12.383429 1.637774
128.628749 76.929780 -11.561445 0.762179
131.105357 76.929780 -11.352278 0.503745
133.581965 76.929780 -11.936882 0.586650
136.058573 76.929780 -12.502689 0.562232
138.535181 76.929780 -11.717355 1.019854
141.011789 76.929780 -11.027173 1.046920
143.488397 76.929780 -11.510175 0.595712
-39.780598 74.453172 -12.208418 -1.701215
-37.303990 74.453172 -11.823572 0.277958
-34.827382 74.453172 -11.934449 0.816365
-32.350774 74.453172 -11.832473 -0.400148
-29.874166 74.453172 -11.839864 -0.257330
-27.397558 74.453172 -12.117110 -0.863234
-24.920950 74.453172 -11.416519 -0.784329
-22.444342 74.453172 -11.909935 -0.498152
-19.967734 74.453172 -12.346353 -1.341776
-17.491125 74.453172 -11.435802 -1.773778
-15.014517 74.453172 -11.234238 -1.599762
-12.537909 74.453172 -12.918883 -1.398149
-10.061301 74.453172 -12.971033 -1.148876
-7.584693 74.453172 -13.000464 -0.731125
-5.108085 74.453172 -12.713158 -0.613888
-2.631477 74.453172 -12.715222 -0.508654
-0.154869 74.453172 -13.121069 -0.590990
2.321739 74.453172 -12.720955 -0.871301
4.798347 74.453172 -12.518753 -1.319576
7.274955 74.453172 -12.817503 -1.519173
9.751563 74.453172 -12.865254 -1.037716
12.228171 74.453172 -13.271193 -0.546151
14.704779 74.453172 -13.293997 -0.631955
17.181387 74.453172 -12.875565 -1.408385
19.657995 74.453172 -12.688527 -1.265017
22.134603 74.453172 -12.922862 -0.808370
24.611211 74.453172 -12.882188 -1.062612
27.087819 74.453172 -13.243273 -1.002583
29.564427 74.453172 -13.245089 -0.787697
32.041035 74.453172 -13.558188 -0.163305
34.517643 74.453172 -13.178508 -0.175496
36.994251 74.453172 -12.814530 -0.666347
39.470859 74.453172 -13.437070 -0.732150
41.947467 74.453172 -13.370689 -0.653035
44.424075 74.453172 -12.816179 -0.566654
46.900684 74.453172 -13.000838 -0.208760
49.377292 74.453172 -12.970149 -0.125106
51.853900 74.453172 -12.615533 -0.370267
54.330508 74.453172 -13.138381 -0.362312
56.807116 74.453172 -12.400576 -0.598941
59.283724 74.453172 -12.474412 -0.571000
61.760332 74.453172 -13.349977 0.182811
64.236940 74.453172 -13.151227 0.512330
66.713548 74.453172 -13.220619 0.339110
69.190156 74.453172 -13.126994 0.586522
71.666764 74.453172 -13.301691 0.669031
74.143372 74.453172 -13.037232 0.461224
76.619980 74.453172 -12.798113 0.672768
79.096588 74.453172 -12.943833 0.997530
81.573196 74.453172 -12.665735 1.511031
84.049804 74.453172 -12.624726 1.262918
86.526412 74.453172 -12.821049 1.171800
89.003020 74.453172 -12.856405 1.489099
91.479628 74.453172 -12.649470 1.417665
93.956236 74.453172 -12.301110 1.723448
96.432844 74.453172 -13.214849 0.812197
98.909452 74.453172 -13.024892 1.240097
101.386060 74.453172 -12.843593 1.696886
103.862668 74.453172 -12.088855 1.001897
106.339276 74.453172 -12.313063 1.391829
108.815884 74.453172 -12.205470 1.393410
111.292493 74.453172 -11.856816 1.115259
113.769101 74.453172 -11.917085 1.451312
116.245709 74.453172 -11.364438 1.704831
118.722317 74.453172 -11.377244 0.968848
121.198925 74.453172 -11.927236 0.765999
123.675533 74.453172 -11.960671 1.646670
126.152141 74.453172 -12.281418 1.859935
128.628749 74.453172 -12.174242 0.987550
131.105357 74.453172 -11.884379 0.414798
133.581965 74.453172 -11.773868 0.624531
136.058573 74.453172 -11.895172 1.311865
138.535181 74.453172 -11.584819 0.401313
141.011789 74.453172 -12.058275 0.474552
143.488397 74.453172 -11.441101 1.423070
-39.780598 71.976564 -11.813185 -0.849584
-37.303990 71.976564 -12.065190 -1.131321
-34.827382 71.976564 -12.644552 -0.758476
-32.350774 71.976564 -11.709930 -0.999629
-29.874166 71.976564 -11.835622 -0.737978
-27.397558 71.976564 -11.912103 -0.715038
-24.920950 71.976564 -10.864429 -0.822977
-22.444342 71.976564 -11.973007 -0.739116
-19.967734 71.976564 -11.720796 -0.653838
-17.491125 71.976564 -10.857092 -1.086399
-15.014517 71.976564 -11.510529 -1.660063
-12.537909 71.976564 -12.523132 -1.097323
-10.061301 71.976564 -13.125686 -0.502542
-7.584693 71.976564 -13.120608 -0.225860
-5.108085 71.976564 -12.338315 -0.591302
-2.631477 71.976564 -12.624919 -0.829357
-0.154869 71.976564 -12.972607 -0.898346
2.321739 71.976564 -12.812209 -0.904161
4.798347 71.976564 -12.982560 -1.629724
7.274955 71.976564 -13.188179 -1.771500
9.751563 71.976564 -13.062294 -0.611655
12.228171 71.976564 -12.617533 -0.027075
14.704779 71.976564 -12.785345 -0.168531
17.181387 71.976564 -12.981501 -1.232569
19.657995 71.976564 -13.221015 -1.154070
22.134603 71.976564 -13.322815 -0.916698
24.611211 71.976564 -12.487236 -0.704131
27.087819 71.976564 -13.229573 -0.712337
29.564427 71.976564 -13.538117 -1.009336
32.041035 71.976564 -13.333079 -0.777036
34.517643 71.976564 -13.212718 -0.682264
36.994251 71.976564 -13.017975 -0.474803
39.470859 71.976564 -13.303913 -0.442876
41.947467 71.976564 -13.037376 -0.745062
44.424075 71.976564 -13.030187 -0.481334
46.900684 71.976564 -13.328224 -0.268429
49.377292 71.976564 -13.400062 -0.449531
51.853900 71.976564 -12.977648 -0.285606
54.330508 71.976564 -13.409977 -0.304428
56.807116 71.976564 -12.762169 -0.615358
59.283724 71.976564 -12.621842 -0.118439
61.760332 71.976564 -13.242303 0.189184
64.236940 71.976564 -13.315788 -0.039762
66.713548 71.976564 -13.056694 0.075265
69.190156 71.976564 -13.270938 0.445437
71.666764 71.976564 -13.396453 0.769851
74.143372 71.976564 -13.096842 0.876875
76.619980 71.976564 -12.786817 1.197233
79.096588 71.976564 -12.655197 0.955621
81.573196 71.976564 -12.880484 0.930796
84.049804 71.976564 -13.037694 1.069869
86.526412 71.976564 -13.214944 0.960837
89.003020 71.976564 -13.110211 1.241634
91.479628 71.976564 -12.904164 1.748725
93.956236 71.976564 -11.706350 1.980206
96.432844 71.976564 -12.889673 1.685548
98.909452 71.976564 -12.914048 2.107388
101.386060 71.976564 -12.794097 1.771639
103.862668 71.976564 -11.932900 0.346860
106.339276 71.976564 -12.965187 0.829043
108.815884 71.976564 -12.970533 1.163272
111.292493 71.976564 -12.158403 1.305003
113.769101 71.976564 -12.198573 1.759762
116.245709 71.976564 -11.527735 1.537960
118.722317 71.976564 -9.157765 0.766412
121.198925 71.976564 -11.300268 1.454242
123.675533 71.976564 -11.947535 1.571793
126.152141 71.976564 -12.229978 1.102343
128.628749 71.976564 -12.221692 1.046834
131.105357 71.976564 -11.809796 0.710185
133.581965 71.976564 -11.093095 1.265302
136.058573 71.976564 -11.154172 1.674641
138.535181 71.976564 -11.455829 0.287160
141.011789 71.976564 -11.713134 0.769044
143.488397 71.976564 -11.755952 1.716982
-39.780598 69.499956 -10.803602 -0.358336
-37.303990 69.499956 -11.327137 -0.666247
-34.827382 69.499956 -12.353038 -0.891716
-32.350774 69.499956 -12.045565 -1.357184
-29.874166 69.499956 -11.880590 -1.881607
-27.397558 69.499956 -12.132098 -1.214609
-24.920950 69.499956 -11.724317 -1.373470
-22.444342 69.499956 -12.335484 -1.890252
-19.967734 69.499956 -11.927703 -0.942132
-17.491125 69.499956 -11.743627 -0.737071
-15.014517 69.499956 -12.137602 -1.210819
-12.537909 69.499956 -12.222587 -0.882668
-10.061301 69.499956 -12.852242 -0.576379
-7.584693 69.499956 -12.437794 -0.667086
-5.108085 69.499956 -12.461899 -1.361079
-2.631477 69.499956 -12.629746 -1.441472
-0.154869 69.499956 -12.068180 -1.333738
2.321739 69.499956 -12.887040 -1.127054
4.798347 69.499956 -12.791505 -1.405777
7.274955 69.499956 -13.317707 -1.460485
9.751563 69.499956 -12.897372 -0.570085
12.228171 69.499956 -11.879218 -0.518729
14.704779 69.499956 -12.637226 -0.057446
17.181387 69.499956 -12.986896 -0.410409
19.657995 69.499956 -12.900164 -0.904504
22.134603 69.499956 -13.334598 -0.771442
24.611211 69.499956 -13.192580 -0.785281
27.087819 69.499956 -13.395947 -0.593613
29.564427 69.499956 -13.469746 -0.749023
32.041035 69.499956 -13.387522 -0.796793
34.517643 69.499956 -13.337741 -1.028213
36.994251 69.499956 -13.078724 -0.752058
39.470859 69.499956 -13.024102 -0.587781
41.947467 69.499956 -12.983572 -0.608759
44.424075 69.499956 -13.456570 -0.206931
46.900684 69.499956 -13.576693 -0.441172
49.377292 69.499956 -13.272199 -0.502622
51.853900 69.499956 -12.793262 -0.157087
54.330508 69.499956 -13.383861 -0.217752
56.807116 69.499956 -13.466692 -0.277999
59.283724 69.499956 -13.357039 0.228157
61.760332 69.499956 -13.262149 0.398171
64.236940 69.499956 -13.341156 0.165664
66.713548 69.499956 -12.953445 0.523510
69.190156 69.499956 -13.131181 1.028436
71.666764 69.499956 -13.322869 0.876157
74.143372 69.499956 -13.448840 0.596236
76.619980 69.499956 -13.386146 0.680034
79.096588 69.499956 -13.089722 0.643625
81.573196 69.499956 -12.714236 0.761435
84.049804 69.499956 -13.006385 0.441732
86.526412 69.499956 -13.610472 0.658576
89.003020 69.499956 -13.297389 1.159816
91.479628 69.499956 -13.352526 0.763808
93.956236 69.499956 -12.697725 0.486087
96.432844 69.499956 -12.776091 1.045055
98.909452 69.499956 -12.883498 1.587548
101.386060 69.499956 -12.839655 1.396602
103.862668 69.499956 -12.338366 0.431795
106.339276 69.499956 -12.754447 1.008334
108.815884 69.499956 -13.027940 1.715275
111.292493 69.499956 -12.992118 1.522446
113.769101 69.499956 -12.878861 1.456375
116.245709 69.499956 -12.286807 1.066522
118.722317 69.499956 -8.616989 0.795033
121.198925 69.499956 -3.148712 0.843042
123.675533 69.499956 -12.234085 0.699769
126.152141 69.499956 -12.059422 0.909659
128.628749 69.499956 -11.467359 1.316748
131.105357 69.499956 -10.917103 0.837565
133.581965 69.499956 -10.720801 0.411953
136.058573 69.499956 -10.399380 0.489789
138.535181 69.499956 -11.104312 0.319362
141.011789 69.499956 -11.233976 0.808020
143.488397 69.499956 -11.662290 1.105668
-39.780598 67.023347 -11.622239 -0.009484
-37.303990 67.023347 -11.750071 -0.233246
-34.827382 67.023347 -12.464778 -0.995447
-32.350774 67.023347 -12.163772 -1.129126
-29.874166 67.023347 -11.808191 -1.532439
-27.397558 67.023347 -11.790308 -0.592743
-24.920950 67.023347 -11.723902 -1.134300
-22.444342 67.023347 -12.170863 -1.593709
-19.967734 67.023347 -12.107290 -1.410593
-17.491125 67.023347 -12.037337 -1.099663
-15.014517 67.023347 -12.218238 -0.751140
-12.537909 67.023347 -12.390372 -1.327369
-10.061301 67.023347 -12.552675 -1.014175
-7.584693 67.023347 -12.581711 -0.850074
-5.108085 67.023347 -12.716431 -1.373697
-2.631477 67.023347 -12.542874 -1.117800
-0.154869 67.023347 -12.356393 -1.352683
2.321739 67.023347 -13.112268 -1.966543
4.798347 67.023347 -12.631803 -1.186410
7.274955 67.023347 -12.752354 -0.836043
9.751563 67.023347 -12.753783 -1.318075
12.228171 67.023347 -12.588317 -1.424838
14.704779 67.023347 -12.751350 -0.736310
17.181387 67.023347 -12.797821 -0.604729
19.657995 67.023347 -12.596785 -0.508074
22.134603 67.023347 -13.110908 -0.791733
24.611211 67.023347 -13.130743 -1.366234
27.087819 67.023347 -13.174156 -0.643505
29.564427 67.023347 -13.085513 -0.801009
32.041035 67.023347 -13.650327 -1.345858
34.517643 67.023347 -13.621521 -1.137946
36.994251 67.023347 -13.097035 -0.917074
39.470859 67.023347 -13.065351 -1.076818
41.947467 67.023347 -13.191579 -0.976075
44.424075 67.023347 -13.156253 -0.377839
46.900684 67.023347 -13.058338 -0.506295
49.377292 67.023347 -12.979220 -0.418725
51.853900 67.023347 -12.781442 -0.287543
54.330508 67.023347 -13.291491 -0.253426
56.807116 67.023347 -13.414475 0.082450
59.283724 67.023347 -13.381101 0.263113
61.760332 67.023347 -13.242896 0.141789
64.236940 67.023347 -13.440058 0.267536
66.713548 67.023347 -13.151051 0.364830
69.190156 67.023347 -13.233946 0.713362
71.666764 67.023347 -13.147830 1.099307
74.143372 67.023347 -13.270817 0.791790
76.619980 67.023347 -13.360837 0.749396
79.096588 67.023347 -13.220642 0.704907
81.573196 67.023347 -12.642116 0.894444
84.049804 67.023347 -12.690632 0.823891
86.526412 67.023347 -13.461680 0.828241
89.003020 67.023347 -13.386547 0.796777
91.479628 67.023347 -13.313864 0.694055
93.956236 67.023347 -12.942793 1.033407
96.432844 67.023347 -12.523558 0.954053
98.909452 67.023347 -12.713957 0.956615
101.386060 67.023347 -12.797246 1.166646
103.862668 67.023347 -12.445759 1.158268
106.339276 67.023347 -12.405119 1.280595
108.815884 67.023347 -12.377236 1.566176
111.292493 67.023347 -12.587618 1.551312
113.769101 67.023347 -12.639193 1.645610
116.245709 67.023347 -12.262449 1.345516
118.722317 67.023347 -11.688052 1.299123
121.198925 67.023347 -1.032064 1.476613
123.675533 67.023347 -11.640766 1.489895
126.152141 67.023347 -11.678226 1.778783
128.628749 67.023347 -11.456883 1.296135
131.105357 67.023347 -11.356058 0.464107
133.581965 67.023347 -11.764785 0.193126
136.058573 67.023347 -11.698332 0.228561
138.535181 67.023347 -11.756019 0.637192
141.011789 67.023347 -11.424432 1.152932
143.488397 67.023347 -11.139453 0.999110
-39.780598 64.546739 -11.385918 -0.099432
-37.303990 64.546739 -11.725710 -0.463854
-34.827382 64.546739 -12.988298 -1.729226
-32.350774 64.546739 -12.626873 -1.353185
-29.874166 64.546739 -12.430292 -1.206613
-27.397558 64.546739 -11.667009 -0.886759
-24.920950 64.546739 -11.295327 -1.004170
-22.444342 64.546739 -11.613490 -1.295382
-19.967734 64.546739 -11.896787 -1.646675
-17.491125 64.546739 -11.882916 -1.623340
-15.014517 64.546739 -12.162600 -1.298484
-12.537909 64.546739 -12.409696 -1.394979
-10.061301 64.546739 -12.222933 -0.928303
-7.584693 64.546739 -13.015275 -1.321654
-5.108085 64.546739 -12.554497 -1.314559
-2.631477 64.546739 -12.488300 -1.606169
-0.154869 64.546739 -12.528892 -1.861034
2.321739 64.546739 -12.571438 -1.719822
4.798347 64.546739 -12.426279 -1.532139
7.274955 64.546739 -12.671816 -1.093734
9.751563 64.546739 -13.160850 -1.189506
12.228171 64.546739 -13.096341 -1.775795
14.704779 64.546739 -12.560637 -1.644572
17.181387 64.546739 -12.999124 -1.022478
19.657995 64.546739 -13.174324 -1.109371
22.134603 64.546739 -12.579843 -1.311737
24.611211 64.546739 -12.405470 -1.056010
27.087819 64.546739 -13.170671 -0.423149
29.564427 64.546739 -13.414168 -0.724149
32.041035 64.546739 -13.246588 -1.171370
34.517643 64.546739 -13.388123 -0.639952
36.994251 64.546739 -13.419378 -0.535376
39.470859 64.546739 -12.924372 -0.787736
41.947467 64.546739 -13.124438 -0.776805
44.424075 64.546739 -13.138877 -0.473856
46.900684 64.546739 -13.109368 -0.197603
49.377292 64.546739 -12.981419 -0.197109
51.853900 64.546739 -12.895877 -0.057596
54.330508 64.546739 -13.594130 0.138555
56.807116 64.546739 -13.511504 0.268459
59.283724 64.546739 -13.289187 0.342959
61.760332 64.546739 -13.209535 0.120533
64.236940 64.546739 -13.449734 0.526086
66.713548 64.546739 -13.285045 0.800340
69.190156 64.546739 -13.036417 0.600743
71.666764 64.546739 -13.267267 0.816050
74.143372 64.546739 -13.288641 0.860598
76.619980 64.546739 -13.364976 0.732175
79.096588 64.546739 -13.120249 1.058825
81.573196 64.546739 -12.832791 1.218661
84.049804 64.546739 -12.858369 1.501293
86.526412 64.546739 -13.179552 1.558849
89.003020 64.546739 -13.363076 1.150560
91.479628 64.546739 -13.171672 1.427736
93.956236 64.546739 -12.705359 1.403309
96.432844 64.546739 -12.898175 0.820174
98.909452 64.546739 -12.808912 1.084829
101.386060 64.546739 -12.618796 1.043310
103.862668 64.546739 -12.702135 1.071421
106.339276 64.546739 -12.360784 1.025023
108.815884 64.546739 -12.339828 1.300674
111.292493 64.546739 -12.269345 1.411146
113.769101 64.546739 -12.182702 1.239652
116.245709 64.546739 -11.825627 1.005654
118.722317 64.546739 -12.015063 1.017223
121.198925 64.546739 -11.633658 1.524806
123.675533 64.546739 -11.356792 2.095709
126.152141 64.546739 -10.942046 2.117446
128.628749 64.546739 -11.271694 1.127935
131.105357 64.546739 -12.053999 0.420498
133.581965 64.546739 -12.032906 1.280116
136.058573 64.546739 -11.698895 1.495426
138.535181 64.546739 -11.958320 0.761762
141.011789 64.546739 -11.879538 0.346393
143.488397 64.546739 -11.659008 0.334766
-39.780598 62.070131 -11.679591 -1.658746
-37.303990 62.070131 -11.684597 -1.596857
-34.827382 62.070131 -11.787129 -1.191049
-32.350774 62.070131 -11.230633 -0.921803
-29.874166 62.070131 -12.324246 -1.564986
-27.397558 62.070131 -12.646783 -1.176570
-24.920950 62.070131 -12.293568 -0.552375
-22.444342 62.070131 -11.965590 -1.092037
-19.967734 62.070131 -11.920429 -1.565871
-17.491125 62.070131 -11.893363 -1.900733
-15.014517 62.070131 -12.305607 -1.955559
-12.537909 62.070131 -12.271041 -0.829893
-10.061301 62.070131 -12.343883 0.084801
-7.584693 62.070131 -12.782033 -0.561639
-5.108085 62.070131 -12.544073 -1.009346
-2.631477 62.070131 -12.772928 -1.723795
-0.154869 62.070131 -12.521624 -1.728717
2.321739 62.070131 -12.322186 -0.648520
4.798347 62.070131 -12.396371 -1.465230
7.274955 62.070131 -12.682555 -1.640836
9.751563 62.070131 -12.836500 -1.084152
12.228171 62.070131 -12.712520 -1.316742
14.704779 62.070131 -11.794994 -1.704412
17.181387 62.070131 -12.545313 -1.793446
19.657995 62.070131 -13.060720 -2.088041
22.134603 62.070131 -12.655153 -1.983603
24.611211 62.070131 -12.169430 -1.324753
27.087819 62.070131 -13.058425 -1.237800
29.564427 62.070131 -13.287975 -1.279343
32.041035 62.070131 -12.533004 -0.926952
34.517643 62.070131 -12.810343 -0.677340
36.994251 62.070131 -13.185707 -0.678755
39.470859 62.070131 -12.725417 -0.834417
41.947467 62.070131 -12.903911 -0.757144
44.424075 62.070131 -13.217710 -0.721657
46.900684 62.070131 -13.402631 -1.003587
49.377292 62.070131 -13.365128 -0.845060
51.853900 62.070131 -13.192325 -0.415452
54.330508 62.070131 -13.434593 -0.256087
56.807116 62.070131 -13.342779 0.054691
59.283724 62.070131 -13.090063 0.230201
61.760332 62.070131 -13.158099 0.259459
64.236940 62.070131 -13.481654 0.557965
66.713548 62.070131 -13.691657 0.677889
69.190156 62.070131 -13.005343 0.314905
71.666764 62.070131 -13.084522 0.457340
74.143372 62.070131 -13.385621 0.950683
76.619980 62.070131 -13.281769 1.182576
79.096588 62.070131 -13.267767 1.402925
81.573196 62.070131 -13.351134 1.545772
84.049804 62.070131 -13.171999 1.694808
86.526412 62.070131 -12.933323 1.544471
89.003020 62.070131 -13.043301 1.437302
91.479628 62.070131 -13.238092 1.834284
93.956236 62.070131 -12.787761 1.854981
96.432844 62.070131 -12.865727 1.067124
98.909452 62.070131 -13.044535 0.931426
101.386060 62.070131 -12.560779 1.495409
103.862668 62.070131 -12.884982 2.011444
106.339276 62.070131 -12.043900 1.803248
108.815884 62.070131 -12.585940 1.448683
111.292493 62.070131 -12.675466 1.532363
113.769101 62.070131 -12.067309 1.424480
116.245709 62.070131 -11.172898 1.516313
118.722317 62.070131 -11.282670 1.131256
121.198925 62.070131 -11.408269 0.395121
123.675533 62.070131 -11.538560 1.467335
126.152141 62.070131 -11.554017 1.725455
128.628749 62.070131 -11.650281 0.583914
131.105357 62.070131 -11.803762 0.005101
133.581965 62.070131 -11.455063 0.823526
136.058573 62.070131 -10.487750 1.769542
138.535181 62.070131 -10.731935 0.782550
141.011789 62.070131 -11.308148 0.582961
143.488397 62.070131 -11.897805 0.479667
-39.780598 59.593523 -12.838249 -1.433573
-37.303990 59.593523 -11.978212 -1.715488
-34.827382 59.593523 -11.048397 -1.365160
-32.350774 59.593523 -9.975729 -1.225566
-29.874166 59.593523 -11.170873 -1.377130
-27.397558 59.593523 -12.298403 -1.132407
-24.920950 59.593523 -12.814156 -1.014049
-22.444342 59.593523 -12.331829 -1.062612
-19.967734 59.593523 -12.055609 -1.045898
-17.491125 59.593523 -12.538421 -1.295189
-15.014517 59.593523 -12.385879 -2.521920
-12.537909 59.593523 -11.946385 -1.960730
-10.061301 59.593523 -12.215359 -1.079605
-7.584693 59.593523 -12.289391 -0.942704
-5.108085 59.593523 -12.585652 -0.220562
-2.631477 59.593523 -12.826579 -0.635954
-0.154869 59.593523 -12.602264 -0.874936
2.321739 59.593523 -13.197899 -0.837308
4.798347 59.593523 -13.191476 -1.649432
7.274955 59.593523 -12.784865 -2.006579
9.751563 59.593523 -12.302129 -1.648253
12.228171 59.593523 -12.226102 -0.908608
14.704779 59.593523 -11.903539 -1.409722
17.181387 59.593523 -12.791796 -1.887313
19.657995 59.593523 -13.345738 -1.814867
22.134603 59.593523 -12.835465 -1.745180
24.611211 59.593523 -12.889391 -0.840392
27.087819 59.593523 -13.139064 -0.752309
29.564427 59.593523 -12.977905 -1.049560
32.041035 59.593523 -12.716448 -1.190423
34.517643 59.593523 -13.009257 -1.245578
36.994251 59.593523 -13.444030 -1.226985
39.470859 59.593523 -13.094055 -1.118770
41.947467 59.593523 -12.810164 -1.105314
44.424075 59.593523 -12.926082 -1.330231
46.900684 59.593523 -13.322124 -0.974044
49.377292 59.593523 -13.725204 -0.953734
51.853900 59.593523 -13.654567 -1.014188
54.330508 59.593523 -13.338686 -0.779126
56.807116 59.593523 -13.299751 -0.025826
59.283724 59.593523 -13.467396 0.314626
61.760332 59.593523 -13.574277 0.288673
64.236940 59.593523 -13.570756 0.467387
66.713548 59.593523 -13.396039 0.147281
69.190156 59.593523 -13.016289 0.046048
71.666764 59.593523 -13.122437 0.465991
74.143372 59.593523 -13.602247 0.922450
76.619980 59.593523 -13.161525 1.195031
79.096588 59.593523 -12.876462 1.237501
81.573196 59.593523 -13.142222 1.112958
84.049804 59.593523 -13.012505 1.351920
86.526412 59.593523 -12.906457 1.611371
89.003020 59.593523 -12.988425 1.146938
91.479628 59.593523 -13.107703 1.364624
93.956236 59.593523 -12.630032 2.034505
96.432844 59.593523 -11.979884 1.708084