TITLE = "B00052"
VARIABLES = "position", "position(2)", "Vx", "Vy"
ZONE T="Frame 0", I=75, J=50
-39.780598 81.882996 -9.765091 0.199116
-37.303990 81.882996 -10.062784 0.114061
-34.827382 81.882996 -11.673102 -0.942521
-32.350774 81.882996 -12.286159 -0.916496
-29.874166 81.882996 -12.629545 -0.642196
-27.397558 81.882996 -12.740794 -0.735406
-24.920950 81.882996 -12.499237 -0.934816
-22.444342 81.882996 -12.195190 -1.243425
-19.967734 81.882996 -12.293425 -1.089339
-17.491125 81.882996 -12.189851 -0.627679
-15.014517 81.882996 -12.669270 -0.838873
-12.537909 81.882996 -12.689550 -0.702860
-10.061301 81.882996 -12.129680 -0.399524
-7.584693 81.882996 -11.197314 -0.547131
-5.108085 81.882996 -11.510111 0.568635
-2.631477 81.882996 -11.787138 0.793942
-0.154869 81.882996 -12.004480 -0.137350
2.321739 81.882996 -12.209378 -0.696515
4.798347 81.882996 -12.076519 -0.086951
7.274955 81.882996 -12.526984 0.125701
9.751563 81.882996 -13.053794 -0.182043
12.228171 81.882996 -12.819424 -0.295861
14.704779 81.882996 -12.500427 0.004509
17.181387 81.882996 -12.899289 -0.076468
19.657995 81.882996 -12.720782 -0.142843
22.134603 81.882996 -12.507947 -0.263860
24.611211 81.882996 -12.696057 -0.057948
27.087819 81.882996 -12.598024 0.471098
29.564427 81.882996 -12.352502 -0.031455
32.041035 81.882996 -12.605046 -0.270294
34.517643 81.882996 -12.927137 -0.328757
36.994251 81.882996 -12.983092 -0.634580
39.470859 81.882996 -12.768346 -0.211461
41.947467 81.882996 -12.750318 0.052852
44.424075 81.882996 -12.654026 0.174234
46.900684 81.882996 -12.944275 0.373436
49.377292 81.882996 -13.224962 0.419326
51.853900 81.882996 -12.975213 0.254612
54.330508 81.882996 -12.639787 0.186267
56.807116 81.882996 -12.477596 0.334460
59.283724 81.882996 -12.386611 0.088142
61.760332 81.882996 -12.479648 -0.156692
64.236940 81.882996 -12.650629 -0.260503
66.713548 81.882996 -12.577241 0.391424
69.190156 81.882996 -12.814972 0.733979
71.666764 81.882996 -13.101851 0.232121
74.143372 81.882996 -12.896227 0.230562
76.619980 81.882996 -12.602280 0.156518
79.096588 81.882996 -12.324747 0.234992
81.573196 81.882996 -12.248670 0.666026
84.049804 81.882996 -12.288279 0.356680
86.526412 81.882996 -11.909660 0.803421
89.003020 81.882996 -12.029948 1.276716
91.479628 81.882996 -12.220528 0.464575
93.956236 81.882996 -12.858790 -0.091080
96.432844 81.882996 -13.034489 0.020725
98.909452 81.882996 -12.149387 0.281884
101.386060 81.882996 -10.778840 1.214979
103.862668 81.882996 -11.947656 0.563661
106.339276 81.882996 -11.963666 0.627174
108.815884 81.882996 -11.275030 1.024232
111.292493 81.882996 -11.390325 0.462485
113.769101 81.882996 -11.390598 0.182783
116.245709 81.882996 -10.717355 0.916310
118.722317 81.882996 -11.049460 0.783557
121.198925 81.882996 -10.500942 0.154638
123.675533 81.882996 -10.611011 0.024935
126.152141 81.882996 -11.810684 0.374419
128.628749 81.882996 -12.304135 0.293590
131.105357 81.882996 -11.257599 -0.268992
133.581965 81.882996 -10.166466 -0.243746
136.058573 81.882996 -10.804520 -0.229633
138.535181 81.882996 -11.808401 0.011100
141.011789 81.882996 -11.480345 0.250156
143.488397 81.882996 -11.506923 1.630637
-39.780598 79.406388 -11.218429 1.117553
-37.303990 79.406388 -10.635248 0.184810
-34.827382 79.406388 -10.716075 -0.711894
-32.350774 79.406388 -11.623659 -0.254350
-29.874166 79.406388 -12.009214 -0.115056
-27.397558 79.406388 -11.977536 0.067066
-24.920950 79.406388 -12.396431 0.534317
-22.444342 79.406388 -12.289695 -0.020878
-19.967734 79.406388 -12.243417 -0.599689
-17.491125 79.406388 -12.572756 0.142466
-15.014517 79.406388 -12.758107 -0.263450
-12.537909 79.406388 -12.607185 -0.557417
-10.061301 79.406388 -12.628575 -0.500395
-7.584693 79.406388 -11.818758 -0.692624
-5.108085 79.406388 -10.825884 0.047618
-2.631477 79.406388 -11.616719 0.012390
-0.154869 79.406388 -11.839069 -0.819933
2.321739 79.406388 -11.966363 -0.743043
4.798347 79.406388 -12.271797 0.176488
7.274955 79.406388 -12.630288 0.013739
9.751563 79.406388 -12.865050 -0.224695
12.228171 79.406388 -12.040532 -0.114626
14.704779 79.406388 -12.078634 -0.351069
17.181387 79.406388 -12.730862 -0.750398
19.657995 79.406388 -12.767602 -0.670402
22.134603 79.406388 -12.761402 -0.429463
24.611211 79.406388 -12.926911 -0.255426
27.087819 79.406388 -12.527804 -0.252720
29.564427 79.406388 -12.598760 -0.426917
32.041035 79.406388 -12.706595 -0.334544
34.517643 79.406388 -12.865018 -0.360859
36.994251 79.406388 -12.983683 -0.309053
39.470859 79.406388 -12.696218 -0.393808
41.947467 79.406388 -12.686549 -0.422316
44.424075 79.406388 -12.701116 0.130392
46.900684 79.406388 -12.894814 -0.090419
49.377292 79.406388 -13.030859 -0.131366
51.853900 79.406388 -12.985443 -0.014940
54.330508 79.406388 -12.818428 0.203753
56.807116 79.406388 -12.645007 0.568562
59.283724 79.406388 -12.678239 0.027513
61.760332 79.406388 -12.800384 -0.537602
64.236940 79.406388 -13.154242 -0.420317
66.713548 79.406388 -12.663937 0.219291
69.190156 79.406388 -12.501262 0.308308
71.666764 79.406388 -12.744109 0.006408
74.143372 79.406388 -12.554904 0.257678
76.619980 79.406388 -12.451312 0.378403
79.096588 79.406388 -12.392218 0.675707
81.573196 79.406388 -12.227426 0.549753
84.049804 79.406388 -12.486484 0.185215
86.526412 79.406388 -12.522505 0.372653
89.003020 79.406388 -12.279174 0.541387
91.479628 79.406388 -12.037134 0.529228
93.956236 79.406388 -12.344567 0.254192
96.432844 79.406388 -12.609943 0.191173
98.909452 79.406388 -12.173931 0.679898
101.386060 79.406388 -11.681502 1.647934
103.862668 79.406388 -11.830151 1.127045
106.339276 79.406388 -11.844915 1.283611
108.815884 79.406388 -11.471261 1.158306
111.292493 79.406388 -11.632472 0.486095
113.769101 79.406388 -11.472478 0.434417
116.245709 79.406388 -11.642666 0.695265
118.722317 79.406388 -11.471385 0.372582
121.198925 79.406388 -11.184526 -0.010054
123.675533 79.406388 -11.382271 0.038350
126.152141 79.406388 -11.864288 1.040371
128.628749 79.406388 -11.736534 0.938345
131.105357 79.406388 -11.629726 0.364227
133.581965 79.406388 -10.968850 0.862275
136.058573 79.406388 -11.795297 0.115798
138.535181 79.406388 -12.526333 -0.333476
141.011789 79.406388 -11.444876 -0.356622
143.488397 79.406388 -10.659517 0.518133
-39.780598 76.929780 -11.981528 0.886221
-37.303990 76.929780 -10.841077 0.046966
-34.827382 76.929780 -10.259157 -0.652440
-32.350774 76.929780 -12.288685 -0.072787
-29.874166 76.929780 -12.398980 0.034773
-27.397558 76.929780 -11.270608 -0.067358
-24.920950 76.929780 -11.545800 0.342238
-22.444342 76.929780 -11.887802 0.262559
-19.967734 76.929780 -11.517769 -0.176437
-17.491125 76.929780 -12.556897 0.351881
-15.014517 76.929780 -12.784361 0.651805
-12.537909 76.929780 -12.621487 -0.000704
-10.061301 76.929780 -12.867542 -0.717659
-7.584693 76.929780 -12.269608 -0.612169
-5.108085 76.929780 -11.975653 -0.600008
-2.631477 76.929780 -12.017333 -1.126683
-0.154869 76.929780 -11.918391 -1.227602
2.321739 76.929780 -12.035994 -0.968500
4.798347 76.929780 -12.366171 -0.377355
7.274955 76.929780 -12.458803 -0.277978
9.751563 76.929780 -12.727120 -0.351358
12.228171 76.929780 -12.551997 -0.146697
14.704779 76.929780 -12.854351 -0.345798
17.181387 76.929780 -12.782739 -0.487507
19.657995 76.929780 -12.230645 -0.247588
22.134603 76.929780 -12.539529 -0.101299
24.611211 76.929780 -12.875061 -0.051955
27.087819 76.929780 -12.718947 -0.778648
29.564427 76.929780 -13.158126 -0.562105
32.041035 76.929780 -12.797633 0.062581
34.517643 76.929780 -12.457417 -0.192235
36.994251 76.929780 -12.732910 -0.020265
39.470859 76.929780 -12.809708 -0.188323
41.947467 76.929780 -12.690186 -0.397821
44.424075 76.929780 -12.756923 -0.096077
46.900684 76.929780 -12.650486 -0.148832
49.377292 76.929780 -12.768325 -0.325086
51.853900 76.929780 -12.733813 -0.304201
54.330508 76.929780 -12.706673 0.109557
56.807116 76.929780 -13.043517 0.414579
59.283724 76.929780 -12.910021 0.043391
61.760332 76.929780 -13.018199 -0.327575
64.236940 76.929780 -13.158622 -0.231859
66.713548 76.929780 -12.592275 0.245513
69.190156 76.929780 -12.514643 0.333725
71.666764 76.929780 -12.747235 0.163175
74.143372 76.929780 -12.671349 0.260977
76.619980 76.929780 -12.343753 0.783983
79.096588 76.929780 -12.490285 0.604515
81.573196 76.929780 -12.100517 0.063581
84.049804 76.929780 -12.121583 0.359735
86.526412 76.929780 -12.900087 0.271408
89.003020 76.929780 -12.459126 0.282310
91.479628 76.929780 -11.991462 0.629283
93.956236 76.929780 -11.943460 1.089017
96.432844 76.929780 -12.425504 0.974810
98.909452 76.929780 -12.561430 1.312924
101.386060 76.929780 -12.808264 1.684554
103.862668 76.929780 -12.309433 1.014680
106.339276 76.929780 -12.124985 1.242329
108.815884 76.929780 -11.935632 1.275695
111.292493 76.929780 -11.863190 0.929558
113.769101 76.929780 -11.729167 0.845785
116.245709 76.929780 -11.951641 1.035553
118.722317 76.929780 -11.466533 1.000776
121.198925 76.929780 -11.244681 0.225356
123.675533 76.929780 -11.881477 0.041676
126.152141 76.929780 -11.787571 1.242958
128.628749 76.929780 -11.361345 1.841848
131.105357 76.929780 -12.140216 1.828316
133.581965 76.929780 -11.967177 1.513343
136.058573 76.929780 -11.751019 0.635269
138.535181 76.929780 -12.060233 -0.254395
141.011789 76.929780 -10.911794 -0.589076
143.488397 76.929780 -9.935221 -0.686121
-39.780598 74.453172 -11.305479 -1.188577
-37.303990 74.453172 -10.566328 -0.395051
-34.827382 74.453172 -11.396327 -0.323512
-32.350774 74.453172 -12.641101 0.142322
-29.874166 74.453172 -12.617232 0.181471
-27.397558 74.453172 -11.906852 -0.147215
-24.920950 74.453172 -11.155829 -0.546954
-22.444342 74.453172 -11.245674 -1.038845
-19.967734 74.453172 -11.366857 -0.759622
-17.491125 74.453172 -12.314214 -0.127981
-15.014517 74.453172 -12.526734 0.154081
-12.537909 74.453172 -12.613854 0.167225
-10.061301 74.453172 -12.488014 -0.290197
-7.584693 74.453172 -11.826879 -0.485636
-5.108085 74.453172 -12.463865 -0.555566
-2.631477 74.453172 -12.303299 -0.954343
-0.154869 74.453172 -12.247749 -0.564765
2.321739 74.453172 -11.994552 -0.608585
4.798347 74.453172 -12.030103 -0.623608
7.274955 74.453172 -12.717215 -0.478595
9.751563 74.453172 -12.894568 -0.560576
12.228171 74.453172 -12.979658 -0.357363
14.704779 74.453172 -12.890492 -0.397055
17.181387 74.453172 -12.610938 -0.322386
19.657995 74.453172 -12.511320 -0.402792
22.134603 74.453172 -12.432501 -0.245950
24.611211 74.453172 -12.935933 -0.183849
27.087819 74.453172 -12.928151 -0.519666
29.564427 74.453172 -13.127521 -0.094662
32.041035 74.453172 -12.713364 0.106831
34.517643 74.453172 -12.286287 -0.143923
36.994251 74.453172 -12.852692 0.020869
39.470859 74.453172 -12.842989 0.038401
41.947467 74.453172 -12.762168 -0.205961
44.424075 74.453172 -12.890648 -0.246626
46.900684 74.453172 -12.843430 -0.035659
49.377292 74.453172 -13.117725 -0.177777
51.853900 74.453172 -12.971877 -0.039628
54.330508 74.453172 -12.512621 0.009489
56.807116 74.453172 -12.570931 -0.176192
59.283724 74.453172 -12.694137 0.102672
61.760332 74.453172 -12.784940 0.272116
64.236940 74.453172 -12.837476 0.176004
66.713548 74.453172 -12.609896 0.128910
69.190156 74.453172 -12.627046 0.294949
71.666764 74.453172 -12.886855 0.495219
74.143372 74.453172 -12.987229 0.358017
76.619980 74.453172 -12.651838 0.412603
79.096588 74.453172 -12.665623 0.363202
81.573196 74.453172 -12.292666 0.492029
84.049804 74.453172 -12.124112 0.800637
86.526412 74.453172 -12.594416 0.617112
89.003020 74.453172 -12.360823 0.567647
91.479628 74.453172 -12.239969 0.755631
93.956236 74.453172 -12.058679 1.147408
96.432844 74.453172 -12.353004 1.261858
98.909452 74.453172 -12.504693 1.495615
101.386060 74.453172 -11.984474 1.342439
103.862668 74.453172 -12.094779 0.912821
106.339276 74.453172 -12.218136 0.959244
108.815884 74.453172 -11.575446 1.022442
111.292493 74.453172 -11.489275 1.426977
113.769101 74.453172 -12.016909 1.177761
116.245709 74.453172 -11.952065 0.686370
118.722317 74.453172 -10.627813 0.646301
121.198925 74.453172 -9.547551 0.794997
123.675533 74.453172 -11.393545 1.146847
126.152141 74.453172 -11.911621 1.579715
128.628749 74.453172 -11.764017 1.463372
131.105357 74.453172 -11.108343 1.480804
133.581965 74.453172 -11.258415 0.996270
136.058573 74.453172 -10.877403 0.185873
138.535181 74.453172 -10.892382 1.096638
141.011789 74.453172 -10.966829 0.956601
143.488397 74.453172 -11.160188 0.476329
-39.780598 71.976564 -11.610547 -1.551274
-37.303990 71.976564 -11.452189 -0.746926
-34.827382 71.976564 -12.167146 -0.365514
-32.350774 71.976564 -12.266376 -0.605887
-29.874166 71.976564 -12.490595 -0.743953
-27.397558 71.976564 -12.392323 -0.843621
-24.920950 71.976564 -12.137760 -0.928951
-22.444342 71.976564 -11.914565 -1.305781
-19.967734 71.976564 -11.676892 -1.158119
-17.491125 71.976564 -12.298610 -0.566774
-15.014517 71.976564 -12.240697 -0.333172
-12.537909 71.976564 -11.964035 -0.429782
-10.061301 71.976564 -11.939624 -0.805294
-7.584693 71.976564 -11.690773 -0.799801
-5.108085 71.976564 -12.631410 -0.661168
-2.631477 71.976564 -12.471562 -0.862881
-0.154869 71.976564 -12.639855 -0.323332
2.321739 71.976564 -11.947464 -0.775758
4.798347 71.976564 -11.496569 -1.055615
7.274955 71.976564 -12.244419 -0.677588
9.751563 71.976564 -12.771629 -0.767812
12.228171 71.976564 -12.894589 -0.932078
14.704779 71.976564 -12.635084 -0.773064
17.181387 71.976564 -12.526406 -0.688601
19.657995 71.976564 -12.932063 -0.939457
22.134603 71.976564 -12.866728 -0.533377
24.611211 71.976564 -12.891523 -0.372593
27.087819 71.976564 -12.987244 -0.471304
29.564427 71.976564 -12.971500 -0.208758
32.041035 71.976564 -12.690118 -0.160033
34.517643 71.976564 -12.720394 -0.243971
36.994251 71.976564 -13.028918 0.062583
39.470859 71.976564 -12.865279 -0.057484
41.947467 71.976564 -13.116341 -0.446035
44.424075 71.976564 -13.015181 -0.243211
46.900684 71.976564 -12.827188 -0.319193
49.377292 71.976564 -13.165993 -0.145315
51.853900 71.976564 -13.085518 -0.029745
54.330508 71.976564 -12.543137 -0.341034
56.807116 71.976564 -12.653858 -0.057924
59.283724 71.976564 -13.037484 0.286136
61.760332 71.976564 -12.851153 0.130666
64.236940 71.976564 -12.810429 0.235773
66.713548 71.976564 -12.622243 0.504914
69.190156 71.976564 -12.617210 0.588400
71.666764 71.976564 -12.760860 0.151601
74.143372 71.976564 -12.656931 0.128506
76.619980 71.976564 -12.751667 0.504340
79.096588 71.976564 -12.922123 0.436322
81.573196 71.976564 -12.600715 0.761043
84.049804 71.976564 -12.632903 0.828862
86.526412 71.976564 -12.606408 0.801387
89.003020 71.976564 -12.283514 1.032057
91.479628 71.976564 -12.227509 0.853627
93.956236 71.976564 -12.001722 0.791906
96.432844 71.976564 -12.167579 0.865108
98.909452 71.976564 -12.330945 0.681619
101.386060 71.976564 -11.607454 0.858356
103.862668 71.976564 -11.146611 0.969846
106.339276 71.976564 -11.679963 0.546509
108.815884 71.976564 -11.545592 0.777663
111.292493 71.976564 -12.185864 1.197410
113.769101 71.976564 -12.254054 0.999015
116.245709 71.976564 -12.040724 0.484545
118.722317 71.976564 -9.960414 0.156069
121.198925 71.976564 -9.661375 0.722444
123.675533 71.976564 -11.274168 1.137797
126.152141 71.976564 -11.554807 0.989724
128.628749 71.976564 -11.742635 0.735300
131.105357 71.976564 -11.202289 0.818155
133.581965 71.976564 -11.102228 0.730209
136.058573 71.976564 -10.997959 0.419539
138.535181 71.976564 -11.338800 1.043289
141.011789 71.976564 -11.395423 0.854897
143.488397 71.976564 -11.385368 1.401662
-39.780598 69.499956 -11.568597 -0.440033
-37.303990 69.499956 -11.809675 -0.159664
-34.827382 69.499956 -12.130281 -0.582098
-32.350774 69.499956 -12.724398 -1.143256
-29.874166 69.499956 -12.219371 -0.941708
-27.397558 69.499956 -11.853123 -0.922048
-24.920950 69.499956 -12.223394 -0.997621
-22.444342 69.499956 -12.245384 -0.527233
-19.967734 69.499956 -12.302118 -0.734161
-17.491125 69.499956 -12.514454 -1.097254
-15.014517 69.499956 -12.679432 -1.073449
-12.537909 69.499956 -11.976641 -0.946298
-10.061301 69.499956 -11.997530 -1.201175
-7.584693 69.499956 -12.074863 -1.022770
-5.108085 69.499956 -12.570990 -0.374684
-2.631477 69.499956 -12.576769 -0.837477
-0.154869 69.499956 -12.564835 -0.717326
2.321739 69.499956 -12.801536 -0.802726
4.798347 69.499956 -12.467749 -1.179493
7.274955 69.499956 -12.288854 -0.511051
9.751563 69.499956 -12.519180 -0.114479
12.228171 69.499956 -12.392090 -0.589072
14.704779 69.499956 -12.580427 -0.508157
17.181387 69.499956 -12.595888 -0.734976
19.657995 69.499956 -12.701267 -0.950004
22.134603 69.499956 -12.674429 -0.672310
24.611211 69.499956 -12.713384 -0.288755
27.087819 69.499956 -12.960372 -0.542812
29.564427 69.499956 -12.985120 -0.207576
32.041035 69.499956 -12.794655 0.020048
34.517643 69.499956 -13.203190 -0.465164
36.994251 69.499956 -13.014129 -0.274731
39.470859 69.499956 -12.658316 -0.545295
41.947467 69.499956 -12.607425 -0.367113
44.424075 69.499956 -12.732763 -0.068736
46.900684 69.499956 -13.071821 -0.168619
49.377292 69.499956 -13.110344 0.297288
51.853900 69.499956 -13.004322 0.384501
54.330508 69.499956 -12.780236 0.087385
56.807116 69.499956 -12.975748 0.219762
59.283724 69.499956 -13.168280 0.379265
61.760332 69.499956 -13.000966 0.038359
64.236940 69.499956 -12.800582 0.381600
66.713548 69.499956 -12.732749 0.846961
69.190156 69.499956 -12.865038 0.519555
71.666764 69.499956 -13.021508 0.289862
74.143372 69.499956 -12.692129 0.704614
76.619980 69.499956 -12.390074 0.866742
79.096588 69.499956 -12.567907 0.634887
81.573196 69.499956 -12.583522 0.564783
84.049804 69.499956 -12.641179 0.297946
86.526412 69.499956 -12.748224 0.535691
89.003020 69.499956 -12.352678 1.307345
91.479628 69.499956 -12.421686 1.365062
93.956236 69.499956 -12.067410 0.784477
96.432844 69.499956 -11.874100 0.472787
98.909452 69.499956 -11.984444 0.457723
101.386060 69.499956 -11.752861 0.672611
103.862668 69.499956 -11.249087 -0.009911
106.339276 69.499956 -11.112223 -0.129687
108.815884 69.499956 -11.761124 1.094395
111.292493 69.499956 -12.317639 1.221801
113.769101 69.499956 -11.986036 0.859704
116.245709 69.499956 -12.082961 0.678829
118.722317 69.499956 -10.901810 0.856236
121.198925 69.499956 -11.037600 1.460911
123.675533 69.499956 -11.966218 0.901300
126.152141 69.499956 -11.726963 0.271759
128.628749 69.499956 -11.584020 1.125971
131.105357 69.499956 -12.181744 1.831506
133.581965 69.499956 -12.046940 1.442356
136.058573 69.499956 -11.785891 -0.339474
138.535181 69.499956 -12.252682 -0.095984
141.011789 69.499956 -11.777301 0.420836
143.488397 69.499956 -10.883784 0.886805
-39.780598 67.023347 -11.813568 0.071324
-37.303990 67.023347 -11.904286 0.397872
-34.827382 67.023347 -12.289844 -0.103868
-32.350774 67.023347 -12.810814 -0.599057
-29.874166 67.023347 -12.357980 -0.786527
-27.397558 67.023347 -11.791210 -0.998278
-24.920950 67.023347 -11.890709 -0.432315
-22.444342 67.023347 -11.928251 0.317131
-19.967734 67.023347 -12.074033 0.034521
-17.491125 67.023347 -12.521727 -0.529876
-15.014517 67.023347 -12.832855 -1.020571
-12.537909 67.023347 -12.146157 -0.735852
-10.061301 67.023347 -12.206480 -0.320724
-7.584693 67.023347 -12.411949 -0.617765
-5.108085 67.023347 -12.280138 -0.554541
-2.631477 67.023347 -12.390200 -0.610419
-0.154869 67.023347 -12.401138 -0.310199
2.321739 67.023347 -12.977155 -0.132166
4.798347 67.023347 -13.442293 -0.581489
7.274955 67.023347 -13.005815 -0.313885
9.751563 67.023347 -12.788264 -0.085763
12.228171 67.023347 -12.478711 -0.495662
14.704779 67.023347 -12.651529 -0.292995
17.181387 67.023347 -13.111447 -0.581225
19.657995 67.023347 -12.827389 -0.964413
22.134603 67.023347 -12.294648 -0.872930
24.611211 67.023347 -12.582460 -0.245888
27.087819 67.023347 -12.649032 -0.308241
29.564427 67.023347 -12.640834 -0.503337
32.041035 67.023347 -12.980712 -0.500665
34.517643 67.023347 -13.211766 -0.356664
36.994251 67.023347 -12.895157 -0.126401
39.470859 67.023347 -12.689497 -0.537978
41.947467 67.023347 -12.240964 -0.354402
44.424075 67.023347 -12.463568 -0.185865
46.900684 67.023347 -13.033476 -0.136759
49.377292 67.023347 -13.116491 0.212561
51.853900 67.023347 -13.202986 0.397379
54.330508 67.023347 -12.911698 0.233013
56.807116 67.023347 -12.838766 0.210770
59.283724 67.023347 -12.965540 0.232305
61.760332 67.023347 -12.830197 0.278578
64.236940 67.023347 -12.680579 0.511901
66.713548 67.023347 -12.648361 0.777966
69.190156 67.023347 -12.771996 0.639099
71.666764 67.023347 -12.978856 0.655306
74.143372 67.023347 -12.715067 1.267315
76.619980 67.023347 -12.431062 1.341239
79.096588 67.023347 -12.497732 0.869136
81.573196 67.023347 -12.542068 0.713891
84.049804 67.023347 -12.623991 0.645086
86.526412 67.023347 -12.792453 0.946862
89.003020 67.023347 -12.372541 1.491047
91.479628 67.023347 -12.492493 1.411815
93.956236 67.023347 -12.053873 1.203313
96.432844 67.023347 -11.800022 0.689286
98.909452 67.023347 -11.483880 0.546391
101.386060 67.023347 -11.683226 0.279512
103.862668 67.023347 -12.036237 -0.243120
106.339276 67.023347 -10.921592 0.591124
108.815884 67.023347 -12.134209 1.181922
111.292493 67.023347 -11.684878 0.965567
113.769101 67.023347 -11.541679 0.944969
116.245709 67.023347 -11.719639 0.664899
118.722317 67.023347 -11.273869 0.670267
121.198925 67.023347 -11.313754 0.685427
123.675533 67.023347 -11.594628 0.454972
126.152141 67.023347 -11.717258 0.316045
128.628749 67.023347 -11.052785 0.675644
131.105357 67.023347 -11.814497 1.324444
133.581965 67.023347 -12.114952 1.565408
136.058573 67.023347 -12.432397 0.776167
138.535181 67.023347 -12.485712 0.633486
141.011789 67.023347 -11.590925 0.797453
143.488397 67.023347 -9.966176 -0.085222
-39.780598 64.546739 -11.755449 -0.923950
-37.303990 64.546739 -11.938099 -0.121578
-34.827382 64.546739 -12.267856 0.111387
-32.350774 64.546739 -12.229229 -0.262427
-29.874166 64.546739 -12.703361 -1.255038
-27.397558 64.546739 -12.429628 -1.404884
-24.920950 64.546739 -12.245876 -0.890274
-22.444342 64.546739 -11.859623 -0.192069
-19.967734 64.546739 -11.496267 0.042991
-17.491125 64.546739 -12.152394 0.007293
-15.014517 64.546739 -12.104977 0.026641
-12.537909 64.546739 -11.960259 -0.367698
-10.061301 64.546739 -12.116263 -0.986598
-7.584693 64.546739 -12.483520 -0.861814
-5.108085 64.546739 -12.500782 -0.261338
-2.631477 64.546739 -12.364370 -0.416908
-0.154869 64.546739 -12.233658 -0.269666
2.321739 64.546739 -12.624316 0.142234
4.798347 64.546739 -13.114440 -0.538484
7.274955 64.546739 -12.433465 -0.905988
9.751563 64.546739 -12.748333 -0.428678
12.228171 64.546739 -13.118390 -0.758055
14.704779 64.546739 -13.077096 -0.497013
17.181387 64.546739 -13.187510 -0.542671
19.657995 64.546739 -13.096949 -1.093769
22.134603 64.546739 -12.349600 -0.717701
24.611211 64.546739 -12.680550 -0.209921
27.087819 64.546739 -12.687294 -0.317723
29.564427 64.546739 -12.214939 -0.557034
32.041035 64.546739 -12.460627 -0.789253
34.517643 64.546739 -12.794921 -0.475293
36.994251 64.546739 -12.870571 -0.360741
39.470859 64.546739 -13.007965 -0.356877
41.947467 64.546739 -12.904800 0.082042
44.424075 64.546739 -12.843965 -0.076080
46.900684 64.546739 -12.785478 -0.391587
49.377292 64.546739 -13.076137 -0.276671
51.853900 64.546739 -13.277220 -0.087025
54.330508 64.546739 -12.541582 0.079187
56.807116 64.546739 -12.475596 0.054990
59.283724 64.546739 -12.690170 0.148918
61.760332 64.546739 -12.922955 0.728376
64.236940 64.546739 -12.899890 0.674422
66.713548 64.546739 -12.684626 0.612306
69.190156 64.546739 -12.882789 0.448165
71.666764 64.546739 -13.061048 0.299080
74.143372 64.546739 -12.731113 0.889923
76.619980 64.546739 -12.889046 1.237579
79.096588 64.546739 -12.838913 0.744702
81.573196 64.546739 -12.442312 0.468292
84.049804 64.546739 -12.845456 0.950587
86.526412 64.546739 -12.776318 1.294322
89.003020 64.546739 -12.398773 1.470269
91.479628 64.546739 -12.410052 1.369983
93.956236 64.546739 -12.232316 1.512950
96.432844 64.546739 -11.781592 1.598297
98.909452 64.546739 -11.894684 0.946446
101.386060 64.546739 -12.103607 0.778245
103.862668 64.546739 -12.303882 0.967591
106.339276 64.546739 -11.061728 1.283783
108.815884 64.546739 -12.167509 1.137843
111.292493 64.546739 -12.038358 1.035881
113.769101 64.546739 -11.789237 0.958992
116.245709 64.546739 -11.409134 0.645753
118.722317 64.546739 -11.094414 0.707853
121.198925 64.546739 -11.172672 0.497127
123.675533 64.546739 -11.089098 0.248962
126.152141 64.546739 -11.030599 0.257561
128.628749 64.546739 -11.012101 0.493954
131.105357 64.546739 -11.373040 0.516414
133.581965 64.546739 -11.776499 0.736851
136.058573 64.546739 -12.022945 0.753768
138.535181 64.546739 -11.393448 -0.054208
141.011789 64.546739 -10.756426 0.735522
143.488397 64.546739 -11.515297 0.408177
-39.780598 62.070131 -9.893403 -0.520692
-37.303990 62.070131 -10.951834 -0.244463
-34.827382 62.070131 -11.677970 -0.242616
-32.350774 62.070131 -11.930798 -0.136234
-29.874166 62.070131 -12.760019 -0.503334
-27.397558 62.070131 -12.665419 -0.218633
-24.920950 62.070131 -12.662254 -0.776009
-22.444342 62.070131 -11.889030 -1.461483
-19.967734 62.070131 -11.894887 -0.698689
-17.491125 62.070131 -12.426190 -0.544414
-15.014517 62.070131 -12.274172 0.063483
-12.537909 62.070131 -12.128965 0.052898
-10.061301 62.070131 -12.097734 -0.740926
-7.584693 62.070131 -12.427813 -0.614350
-5.108085 62.070131 -12.044004 -0.012827
-2.631477 62.070131 -11.967518 -0.502780
-0.154869 62.070131 -12.103516 -1.124826
2.321739 62.070131 -12.360012 -1.143778
4.798347 62.070131 -12.279197 -0.936000
7.274955 62.070131 -12.271271 -0.871326
9.751563 62.070131 -12.376478 -0.909660
12.228171 62.070131 -12.839468 -1.150690
14.704779 62.070131 -13.249610 -0.978723
17.181387 62.070131 -12.975496 -0.860071
19.657995 62.070131 -13.031502 -0.889527
22.134603 62.070131 -12.707893 -0.464617
24.611211 62.070131 -12.887560 -0.258805
27.087819 62.070131 -12.947537 -0.235659
29.564427 62.070131 -12.718223 -0.516297
32.041035 62.070131 -12.650860 -0.553518
34.517643 62.070131 -12.777246 -0.434590
36.994251 62.070131 -13.107757 -0.290112
39.470859 62.070131 -13.148275 -0.110383
41.947467 62.070131 -13.075829 -0.039233
44.424075 62.070131 -12.841772 -0.069197
46.900684 62.070131 -12.650773 -0.100908
49.377292 62.070131 -12.911562 -0.089225
51.853900 62.070131 -12.798201 -0.068939
54.330508 62.070131 -12.596366 0.001431
56.807116 62.070131 -12.807774 0.263716
59.283724 62.070131 -12.922750 0.293141
61.760332 62.070131 -13.068833 0.463164
64.236940 62.070131 -12.913651 0.738846
66.713548 62.070131 -12.998867 0.270928
69.190156 62.070131 -13.116472 0.276905
71.666764 62.070131 -13.117265 0.493030
74.143372 62.070131 -12.947724 0.699118
76.619980 62.070131 -13.325422 0.983927
79.096588 62.070131 -13.183094 0.768540
81.573196 62.070131 -12.682282 0.500634
84.049804 62.070131 -12.703598 0.809139
86.526412 62.070131 -12.757524 1.148298
89.003020 62.070131 -12.664657 1.224075
91.479628 62.070131 -12.632703 1.093058
93.956236 62.070131 -12.405222 1.304932
96.432844 62.070131 -12.159328 1.522451
98.909452 62.070131 -12.357875 1.030436
101.386060 62.070131 -12.201006 0.918988
103.862668 62.070131 -12.076846 0.779784
106.339276 62.070131 -11.397786 1.505153
108.815884 62.070131 -11.941948 1.159231
111.292493 62.070131 -12.010933 0.688850
113.769101 62.070131 -11.501898 0.740849
116.245709 62.070131 -11.458563 0.887850
118.722317 62.070131 -11.634266 1.648936
121.198925 62.070131 -11.522736 1.516328
123.675533 62.070131 -11.610609 1.246827
126.152141 62.070131 -11.194636 0.750243
128.628749 62.070131 -11.191625 0.609998
131.105357 62.070131 -11.604235 0.937586
133.581965 62.070131 -11.755017 0.795985
136.058573 62.070131 -11.412567 0.697209
138.535181 62.070131 -11.089991 0.186680
141.011789 62.070131 -10.661494 0.296775
143.488397 62.070131 -11.359921 -0.116853
-39.780598 59.593523 -9.345598 -1.198674
-37.303990 59.593523 -9.658240 -0.043147
-34.827382 59.593523 -11.112973 0.307576
-32.350774 59.593523 -12.537796 -0.133823
-29.874166 59.593523 -12.107641 -0.194857
-27.397558 59.593523 -11.953496 -0.750499
-24.920950 59.593523 -12.524118 -1.278644
-22.444342 59.593523 -12.589695 -1.118331
-19.967734 59.593523 -12.545704 -0.912465
-17.491125 59.593523 -12.456769 -1.235444
-15.014517 59.593523 -12.667614 -0.890252
-12.537909 59.593523 -12.539553 -0.062742
-10.061301 59.593523 -12.173597 -0.204582
-7.584693 59.593523 -12.237574 -0.598028
-5.108085 59.593523 -11.963704 -0.474971
-2.631477 59.593523 -12.314016 -1.274460
-0.154869 59.593523 -12.574504 -1.372563
2.321739 59.593523 -12.226464 -1.387368
4.798347 59.593523 -12.126784 -0.921429
7.274955 59.593523 -12.648942 -0.262664
9.751563 59.593523 -12.259002 -1.013571
12.228171 59.593523 -12.503938 -1.641703
14.704779 59.593523 -13.188988 -1.348787
17.181387 59.593523 -12.868979 -1.059600
19.657995 59.593523 -12.997959 -0.846123
22.134603 59.593523 -12.987621 -0.446944
24.611211 59.593523 -13.079844 -0.314864
27.087819 59.593523 -13.129906 -0.198912
29.564427 59.593523 -13.226946 -0.473520
32.041035 59.593523 -12.989509 -0.686001
34.517643 59.593523 -12.710838 -0.766860
36.994251 59.593523 -12.926345 -0.758937
39.470859 59.593523 -13.135837 -0.517949
41.947467 59.593523 -13.091095 -0.155796
44.424075 59.593523 -12.821950 -0.429870
46.900684 59.593523 -13.064898 -0.459830
49.377292 59.593523 -13.123676 0.052605
51.853900 59.593523 -13.069936 -0.166335
54.330508 59.593523 -13.274657 -0.132832
56.807116 59.593523 -13.313548 0.226133
59.283724 59.593523 -13.246164 0.101320
61.760332 59.593523 -13.202958 0.213392
64.236940 59.593523 -13.224038 0.862806
66.713548 59.593523 -12.912455 0.663743
69.190156 59.593523 -12.812091 0.653973
71.666764 59.593523 -13.049348 0.764745
74.143372 59.593523 -13.059809 0.679700
76.619980 59.593523 -12.915905 1.049449
79.096588 59.593523 -13.028421 1.077857
81.573196 59.593523 -12.598779 0.982680
84.049804 59.593523 -12.323846 1.183256
86.526412 59.593523 -12.811661 1.207789
89.003020 59.593523 -12.783283 1.079923
91.479628 59.593523 -12.560069 0.926058
93.956236 59.593523 -12.141378 0.962149
96.432844 59.593523 -12.199911 0.917108
98.909452 59.593523 -11.355876 0.656752