TITLE = "B00050"
VARIABLES = "position", "position(2)", "Vx", "Vy"
ZONE T="Frame 0", I=75, J=50
-39.780598 81.882996 -9.676393 0.959874
-37.303990 81.882996 -11.686954 -0.088613
-34.827382 81.882996 -12.147838 -0.859201
-32.350774 81.882996 -11.848335 -0.188493
-29.874166 81.882996 -12.270802 -0.114713
-27.397558 81.882996 -11.968078 -0.440309
-24.920950 81.882996 -11.562461 -1.238276
-22.444342 81.882996 -11.417696 -1.568349
-19.967734 81.882996 -12.252699 -0.515217
-17.491125 81.882996 -12.638000 -0.314026
-15.014517 81.882996 -12.048198 -0.513067
-12.537909 81.882996 -11.192677 -0.170791
-10.061301 81.882996 -11.712237 -0.472063
-7.584693 81.882996 -11.987467 -0.573657
-5.108085 81.882996 -12.377669 -0.132161
-2.631477 81.882996 -12.833019 -0.135207
-0.154869 81.882996 -12.990672 -0.039663
2.321739 81.882996 -12.581210 0.349699
4.798347 81.882996 -12.223524 -0.311821
7.274955 81.882996 -12.258239 -0.014087
9.751563 81.882996 -12.024046 -0.262569
12.228171 81.882996 -11.956006 -0.776799
14.704779 81.882996 -12.251444 -0.566556
17.181387 81.882996 -12.560101 -0.094721
19.657995 81.882996 -12.785462 0.266138
22.134603 81.882996 -12.800395 -0.160654
24.611211 81.882996 -12.573043 -0.071045
27.087819 81.882996 -12.729839 0.078677
29.564427 81.882996 -12.581477 -0.179607
32.041035 81.882996 -12.509763 -0.032752
34.517643 81.882996 -12.517253 0.059653
36.994251 81.882996 -12.788016 -0.005927
39.470859 81.882996 -12.900174 0.063761
41.947467 81.882996 -12.665370 0.192357
44.424075 81.882996 -13.041346 0.078300
46.900684 81.882996 -12.819841 -0.024879
49.377292 81.882996 -12.641930 0.430752
51.853900 81.882996 -13.049685 0.362086
54.330508 81.882996 -13.325611 0.021175
56.807116 81.882996 -13.362722 0.017797
59.283724 81.882996 -13.028496 -0.091838
61.760332 81.882996 -12.787036 -0.258306
64.236940 81.882996 -12.584664 0.159330
66.713548 81.882996 -12.520798 0.622421
69.190156 81.882996 -12.986874 0.320666
71.666764 81.882996 -12.853137 0.418123
74.143372 81.882996 -12.374711 0.724145
76.619980 81.882996 -12.607404 0.112395
79.096588 81.882996 -12.775675 0.504224
81.573196 81.882996 -12.545690 0.669281
84.049804 81.882996 -12.744452 -0.308830
86.526412 81.882996 -12.757031 0.108594
89.003020 81.882996 -12.588302 0.977757
91.479628 81.882996 -12.039948 1.634632
93.956236 81.882996 -12.379579 0.850625
96.432844 81.882996 -11.914629 0.498766
98.909452 81.882996 -11.536929 1.028921
101.386060 81.882996 -11.778122 2.152721
103.862668 81.882996 -10.650800 0.590380
106.339276 81.882996 -11.220119 0.431569
108.815884 81.882996 -11.391035 0.712493
111.292493 81.882996 -11.446244 0.906938
113.769101 81.882996 -11.342659 1.333143
116.245709 81.882996 -11.008734 1.914078
118.722317 81.882996 -10.861353 1.594652
121.198925 81.882996 -10.952648 1.190243
123.675533 81.882996 -11.450886 1.205791
126.152141 81.882996 -11.397968 1.006684
128.628749 81.882996 -10.900470 1.079040
131.105357 81.882996 -11.619953 1.317969
133.581965 81.882996 -12.116996 1.222480
136.058573 81.882996 -10.952376 0.641456
138.535181 81.882996 -10.227642 1.173521
141.011789 81.882996 -11.154258 1.621372
143.488397 81.882996 -11.198043 1.381327
-39.780598 79.406388 -9.970242 0.440415
-37.303990 79.406388 -11.783578 -0.293284
-34.827382 79.406388 -12.753978 -1.039751
-32.350774 79.406388 -12.206744 -0.705345
-29.874166 79.406388 -12.429354 -0.888334
-27.397558 79.406388 -12.186669 -1.442940
-24.920950 79.406388 -11.638876 -1.328092
-22.444342 79.406388 -11.548367 -0.960521
-19.967734 79.406388 -12.355237 -0.013155
-17.491125 79.406388 -12.894228 -0.226597
-15.014517 79.406388 -12.234204 -0.751964
-12.537909 79.406388 -11.453048 -0.140111
-10.061301 79.406388 -12.312603 -0.427889
-7.584693 79.406388 -12.614091 -0.409741
-5.108085 79.406388 -12.368163 -0.116177
-2.631477 79.406388 -12.954371 -0.242003
-0.154869 79.406388 -13.103711 0.021539
2.321739 79.406388 -11.917103 -0.042741
4.798347 79.406388 -11.915137 -0.494390
7.274955 79.406388 -12.573961 -0.502446
9.751563 79.406388 -12.741452 -0.877221
12.228171 79.406388 -12.190686 -0.783891
14.704779 79.406388 -12.309421 -0.757317
17.181387 79.406388 -12.700316 -0.646086
19.657995 79.406388 -12.741157 -0.288024
22.134603 79.406388 -12.861994 -0.293542
24.611211 79.406388 -12.985370 -0.114483
27.087819 79.406388 -13.164177 0.103593
29.564427 79.406388 -12.616805 -0.013081
32.041035 79.406388 -12.570834 -0.177357
34.517643 79.406388 -12.631809 0.176394
36.994251 79.406388 -12.594805 0.160183
39.470859 79.406388 -12.891017 -0.471601
41.947467 79.406388 -12.635445 -0.452213
44.424075 79.406388 -12.916992 0.083711
46.900684 79.406388 -12.979647 0.025498
49.377292 79.406388 -12.783535 -0.093271
51.853900 79.406388 -12.996897 0.012141
54.330508 79.406388 -13.133190 -0.089426
56.807116 79.406388 -12.939064 0.092874
59.283724 79.406388 -12.688752 -0.130186
61.760332 79.406388 -12.565773 -0.200495
64.236940 79.406388 -12.657954 0.405882
66.713548 79.406388 -12.054937 0.399573
69.190156 79.406388 -12.228569 -0.073200
71.666764 79.406388 -12.351540 0.404152
74.143372 79.406388 -12.082218 0.696424
76.619980 79.406388 -12.465776 0.225944
79.096588 79.406388 -12.516831 0.523530
81.573196 79.406388 -12.341263 1.065478
84.049804 79.406388 -12.451506 0.462834
86.526412 79.406388 -12.641138 0.331805
89.003020 79.406388 -12.295198 0.619407
91.479628 79.406388 -11.789108 0.579121
93.956236 79.406388 -12.188534 0.287289
96.432844 79.406388 -11.772275 0.696790
98.909452 79.406388 -11.646447 1.463762
101.386060 79.406388 -12.156315 1.770533
103.862668 79.406388 -10.788956 0.345087
106.339276 79.406388 -11.168778 0.398452
108.815884 79.406388 -11.476272 0.613999
111.292493 79.406388 -11.624159 0.947060
113.769101 79.406388 -11.428387 1.183537
116.245709 79.406388 -10.931655 1.808148
118.722317 79.406388 -10.624923 1.895986
121.198925 79.406388 -10.593843 1.162225
123.675533 79.406388 -11.304698 1.216739
126.152141 79.406388 -11.604124 0.979674
128.628749 79.406388 -11.139487 0.826579
131.105357 79.406388 -11.650832 1.376652
133.581965 79.406388 -11.857746 0.458373
136.058573 79.406388 -11.778786 0.003317
138.535181 79.406388 -11.443408 0.540002
141.011789 79.406388 -11.588648 0.793204
143.488397 79.406388 -12.032316 1.150758
-39.780598 76.929780 -10.195646 -1.461588
-37.303990 76.929780 -11.617311 -0.895404
-34.827382 76.929780 -12.422941 -1.129238
-32.350774 76.929780 -12.035417 -1.506431
-29.874166 76.929780 -12.180385 -1.340522
-27.397558 76.929780 -12.937930 -1.212346
-24.920950 76.929780 -12.532466 -1.222964
-22.444342 76.929780 -12.128384 -0.636506
-19.967734 76.929780 -12.189597 -0.302164
-17.491125 76.929780 -12.906174 -0.898738
-15.014517 76.929780 -12.474287 -1.340647
-12.537909 76.929780 -11.849826 -0.682489
-10.061301 76.929780 -12.100691 -0.624690
-7.584693 76.929780 -12.754794 -0.509120
-5.108085 76.929780 -12.046700 -0.356677
-2.631477 76.929780 -12.484312 -0.656209
-0.154869 76.929780 -13.317292 -0.401329
2.321739 76.929780 -12.583943 -0.312883
4.798347 76.929780 -11.674902 0.084334
7.274955 76.929780 -12.486338 -0.487613
9.751563 76.929780 -12.560287 -1.038620
12.228171 76.929780 -12.051583 -0.383159
14.704779 76.929780 -12.344189 -0.161459
17.181387 76.929780 -13.130086 -0.650825
19.657995 76.929780 -13.005689 -0.973291
22.134603 76.929780 -13.100996 -0.806764
24.611211 76.929780 -13.453334 -0.354286
27.087819 76.929780 -13.064419 0.010908
29.564427 76.929780 -12.360522 -0.264568
32.041035 76.929780 -12.412372 -0.492773
34.517643 76.929780 -12.470249 -0.143432
36.994251 76.929780 -12.317942 -0.254771
39.470859 76.929780 -12.832054 -0.554424
41.947467 76.929780 -12.547168 -0.628529
44.424075 76.929780 -12.523382 0.153074
46.900684 76.929780 -12.663686 0.383143
49.377292 76.929780 -12.555079 0.110919
51.853900 76.929780 -12.714524 0.457292
54.330508 76.929780 -12.595511 0.293102
56.807116 76.929780 -12.692347 0.047904
59.283724 76.929780 -12.695762 0.149488
61.760332 76.929780 -12.567774 0.296978
64.236940 76.929780 -12.405174 0.601202
66.713548 76.929780 -12.219976 0.534958
69.190156 76.929780 -12.348695 0.240543
71.666764 76.929780 -12.114146 0.492552
74.143372 76.929780 -12.074857 0.710817
76.619980 76.929780 -12.188620 0.624693
79.096588 76.929780 -12.141958 0.551748
81.573196 76.929780 -12.293548 0.742736
84.049804 76.929780 -11.933987 0.683136
86.526412 76.929780 -12.350064 0.393042
89.003020 76.929780 -12.559126 0.291733
91.479628 76.929780 -11.974048 0.397710
93.956236 76.929780 -12.002947 0.955371
96.432844 76.929780 -11.896272 1.406266
98.909452 76.929780 -12.071663 1.459897
101.386060 76.929780 -12.240635 1.159492
103.862668 76.929780 -11.072170 0.156050
106.339276 76.929780 -11.579515 0.287245
108.815884 76.929780 -12.152504 0.727107
111.292493 76.929780 -12.151445 1.184125
113.769101 76.929780 -12.007341 0.532205
116.245709 76.929780 -11.305345 -0.104559
118.722317 76.929780 -11.413643 0.407647
121.198925 76.929780 -11.299987 0.878496
123.675533 76.929780 -11.325618 1.105938
126.152141 76.929780 -11.260064 0.836598
128.628749 76.929780 -11.279242 0.622663
131.105357 76.929780 -11.725357 0.652387
133.581965 76.929780 -11.995157 0.283743
136.058573 76.929780 -11.830682 0.036006
138.535181 76.929780 -11.617349 -0.293138
141.011789 76.929780 -11.515020 -0.343800
143.488397 76.929780 -11.346074 0.650033
-39.780598 74.453172 -11.255493 -0.685079
-37.303990 74.453172 -11.459223 -0.401215
-34.827382 74.453172 -11.732468 -0.331894
-32.350774 74.453172 -11.986270 -0.494698
-29.874166 74.453172 -11.947547 -0.560182
-27.397558 74.453172 -12.554546 -0.678770
-24.920950 74.453172 -12.875392 -1.444978
-22.444342 74.453172 -12.367002 -0.955486
-19.967734 74.453172 -12.165298 -0.779181
-17.491125 74.453172 -12.921967 -0.903869
-15.014517 74.453172 -11.909254 -0.882793
-12.537909 74.453172 -11.519538 -0.541711
-10.061301 74.453172 -12.067134 -0.064247
-7.584693 74.453172 -12.834276 -0.512701
-5.108085 74.453172 -12.389973 -1.242546
-2.631477 74.453172 -12.052618 -1.256824
-0.154869 74.453172 -12.803280 -0.958234
2.321739 74.453172 -12.833590 -0.140756
4.798347 74.453172 -11.937845 0.257524
7.274955 74.453172 -12.515422 -0.587205
9.751563 74.453172 -12.410691 -0.874222
12.228171 74.453172 -11.912252 -0.477055
14.704779 74.453172 -12.338485 -0.298576
17.181387 74.453172 -12.755425 -0.631754
19.657995 74.453172 -12.843620 -1.004528
22.134603 74.453172 -13.169134 -0.867089
24.611211 74.453172 -13.172735 -0.644586
27.087819 74.453172 -12.605062 -0.172788
29.564427 74.453172 -12.174495 -0.369683
32.041035 74.453172 -12.706493 -0.685672
34.517643 74.453172 -12.511627 -0.572080
36.994251 74.453172 -12.288798 -0.713112
39.470859 74.453172 -12.616278 -0.374018
41.947467 74.453172 -12.827335 -0.436077
44.424075 74.453172 -13.054372 -0.266901
46.900684 74.453172 -12.745297 0.385290
49.377292 74.453172 -12.530469 0.338395
51.853900 74.453172 -12.795819 0.512078
54.330508 74.453172 -12.422099 0.649447
56.807116 74.453172 -12.349599 0.147772
59.283724 74.453172 -12.557644 0.239436
61.760332 74.453172 -12.729890 0.599670
64.236940 74.453172 -12.298946 0.458201
66.713548 74.453172 -12.170564 0.556599
69.190156 74.453172 -12.904403 0.432247
71.666764 74.453172 -12.537949 0.366209
74.143372 74.453172 -12.153873 0.528434
76.619980 74.453172 -12.378455 0.605117
79.096588 74.453172 -12.264095 0.598626
81.573196 74.453172 -12.596100 0.603779
84.049804 74.453172 -12.345737 0.486766
86.526412 74.453172 -12.217815 0.177923
89.003020 74.453172 -12.525489 0.299174
91.479628 74.453172 -11.952090 0.542479
93.956236 74.453172 -12.178641 0.943190
96.432844 74.453172 -12.316457 1.444732
98.909452 74.453172 -12.203989 1.368880
101.386060 74.453172 -12.193718 1.017295
103.862668 74.453172 -11.124808 0.312882
106.339276 74.453172 -11.762626 0.375019
108.815884 74.453172 -12.240379 1.006758
111.292493 74.453172 -12.298095 1.342926
113.769101 74.453172 -11.885069 0.733510
116.245709 74.453172 -11.014770 0.355795
118.722317 74.453172 -10.966462 0.504262
121.198925 74.453172 -11.390102 0.737769
123.675533 74.453172 -11.812287 0.938511
126.152141 74.453172 -11.381791 1.254237
128.628749 74.453172 -10.969571 1.066732
131.105357 74.453172 -11.740542 -0.120007
133.581965 74.453172 -11.725009 -0.451712
136.058573 74.453172 -10.858474 0.434662
138.535181 74.453172 -10.476419 0.132558
141.011789 74.453172 -10.260708 0.279483
143.488397 74.453172 -11.392526 0.604647
-39.780598 71.976564 -11.186080 0.313506
-37.303990 71.976564 -10.728935 0.226363
-34.827382 71.976564 -11.689173 -0.333884
-32.350774 71.976564 -12.422688 -0.637179
-29.874166 71.976564 -12.003717 -0.689815
-27.397558 71.976564 -11.698557 -1.018642
-24.920950 71.976564 -11.998161 -1.500946
-22.444342 71.976564 -11.997213 -1.000749
-19.967734 71.976564 -12.254263 -0.957890
-17.491125 71.976564 -12.703132 -1.186452
-15.014517 71.976564 -12.145480 -0.764456
-12.537909 71.976564 -12.490137 -0.174199
-10.061301 71.976564 -12.897444 0.365152
-7.584693 71.976564 -13.095921 -0.036507
-5.108085 71.976564 -13.159673 -0.740941
-2.631477 71.976564 -12.586481 -1.079939
-0.154869 71.976564 -12.402815 -1.304920
2.321739 71.976564 -12.162198 -0.651257
4.798347 71.976564 -12.383195 -0.634776
7.274955 71.976564 -12.628734 -0.371574
9.751563 71.976564 -12.208855 0.126586
12.228171 71.976564 -11.766143 0.298949
14.704779 71.976564 -12.254350 -0.278036
17.181387 71.976564 -12.491309 -0.539466
19.657995 71.976564 -12.373352 -0.911753
22.134603 71.976564 -12.845936 -0.988477
24.611211 71.976564 -13.250881 -0.317461
27.087819 71.976564 -12.753592 -0.241455
29.564427 71.976564 -12.192359 -0.228665
32.041035 71.976564 -12.720084 -0.232234
34.517643 71.976564 -12.438719 -0.370867
36.994251 71.976564 -12.177719 -0.162537
39.470859 71.976564 -12.538953 -0.126469
41.947467 71.976564 -12.950474 -0.395105
44.424075 71.976564 -13.399540 -0.433243
46.900684 71.976564 -13.277898 -0.300545
49.377292 71.976564 -12.925782 0.322847
51.853900 71.976564 -12.587646 0.465045
54.330508 71.976564 -12.568259 0.354769
56.807116 71.976564 -12.840949 -0.143889
59.283724 71.976564 -12.871068 -0.270890
61.760332 71.976564 -13.005499 0.145297
64.236940 71.976564 -12.900818 0.098668
66.713548 71.976564 -12.592963 0.296961
69.190156 71.976564 -13.180429 0.715032
71.666764 71.976564 -13.075666 0.861829
74.143372 71.976564 -12.217352 0.738489
76.619980 71.976564 -12.559511 0.836274
79.096588 71.976564 -12.372769 0.797019
81.573196 71.976564 -12.267189 0.556711
84.049804 71.976564 -12.377790 0.660398
86.526412 71.976564 -11.856767 0.591887
89.003020 71.976564 -12.214887 0.652781
91.479628 71.976564 -12.617500 0.806655
93.956236 71.976564 -12.537350 1.010953
96.432844 71.976564 -12.474957 1.219771
98.909452 71.976564 -11.903738 1.253064
101.386060 71.976564 -11.817102 0.839816
103.862668 71.976564 -11.292585 0.330320
106.339276 71.976564 -11.578776 0.853933
108.815884 71.976564 -12.093285 0.940385
111.292493 71.976564 -11.867232 0.861827
113.769101 71.976564 -11.544105 0.920073
116.245709 71.976564 -11.478605 1.277972
118.722317 71.976564 -10.160754 1.499131
121.198925 71.976564 -9.917973 1.182593
123.675533 71.976564 -11.406802 1.312207
126.152141 71.976564 -11.386047 1.242614
128.628749 71.976564 -10.900950 1.096324
131.105357 71.976564 -11.646903 0.041742
133.581965 71.976564 -11.463909 -0.646437
136.058573 71.976564 -11.139117 -0.037700
138.535181 71.976564 -10.355424 -0.189057
141.011789 71.976564 -9.868962 0.353099
143.488397 71.976564 -12.054006 -0.180319
-39.780598 69.499956 -11.682510 0.756046
-37.303990 69.499956 -10.206616 -0.557989
-34.827382 69.499956 -11.015795 -1.144542
-32.350774 69.499956 -11.922157 -0.822505
-29.874166 69.499956 -12.136210 -1.026308
-27.397558 69.499956 -11.684120 -1.326721
-24.920950 69.499956 -11.510929 -1.076564
-22.444342 69.499956 -11.727943 -0.526198
-19.967734 69.499956 -12.248861 -0.068347
-17.491125 69.499956 -12.527384 -0.679252
-15.014517 69.499956 -12.280530 -0.977307
-12.537909 69.499956 -12.644177 -0.101386
-10.061301 69.499956 -12.527593 0.200123
-7.584693 69.499956 -12.135189 0.209403
-5.108085 69.499956 -12.996444 -0.352890
-2.631477 69.499956 -12.851494 -0.887076
-0.154869 69.499956 -11.702547 -1.212864
2.321739 69.499956 -11.718034 -0.858510
4.798347 69.499956 -12.324441 -1.150097
7.274955 69.499956 -12.340689 -0.674718
9.751563 69.499956 -12.027248 -0.112073
12.228171 69.499956 -12.460941 0.180910
14.704779 69.499956 -12.610067 -0.513712
17.181387 69.499956 -12.582897 -0.940428
19.657995 69.499956 -12.579388 -0.337928
22.134603 69.499956 -12.998394 -0.229289
24.611211 69.499956 -12.971563 -0.108170
27.087819 69.499956 -12.329938 -0.385217
29.564427 69.499956 -11.890864 -0.652217
32.041035 69.499956 -12.586900 -0.414903
34.517643 69.499956 -12.538702 -0.485808
36.994251 69.499956 -12.526498 -0.249739
39.470859 69.499956 -12.593718 0.445068
41.947467 69.499956 -12.736503 0.550083
44.424075 69.499956 -13.215251 0.043288
46.900684 69.499956 -13.357330 -0.278433
49.377292 69.499956 -12.934428 0.023128
51.853900 69.499956 -12.535217 0.067417
54.330508 69.499956 -12.726717 -0.141255
56.807116 69.499956 -13.083358 -0.308781
59.283724 69.499956 -13.090801 -0.245839
61.760332 69.499956 -12.908611 0.289936
64.236940 69.499956 -12.920831 0.436419
66.713548 69.499956 -12.981240 0.581758
69.190156 69.499956 -13.135046 0.832340
71.666764 69.499956 -13.131181 0.579069
74.143372 69.499956 -12.622814 0.462392
76.619980 69.499956 -12.551335 0.958477
79.096588 69.499956 -12.233755 1.110323
81.573196 69.499956 -12.076009 0.730554
84.049804 69.499956 -12.579480 0.639817
86.526412 69.499956 -11.690004 0.707940
89.003020 69.499956 -12.111421 0.809428
91.479628 69.499956 -12.755602 0.764587
93.956236 69.499956 -12.389547 1.219474
96.432844 69.499956 -12.493348 1.230911
98.909452 69.499956 -12.416431 0.834057
101.386060 69.499956 -12.332444 0.476576
103.862668 69.499956 -12.173422 0.476095
106.339276 69.499956 -12.199535 1.111272
108.815884 69.499956 -11.943575 1.236668
111.292493 69.499956 -11.406171 1.274442
113.769101 69.499956 -11.505539 0.483731
116.245709 69.499956 -11.926496 0.713871
118.722317 69.499956 -11.784722 1.101805
121.198925 69.499956 -10.392233 1.160458
123.675533 69.499956 -10.738347 1.680309
126.152141 69.499956 -10.992414 1.000791
128.628749 69.499956 -11.542507 0.980427
131.105357 69.499956 -12.036507 0.699074
133.581965 69.499956 -10.225477 0.075235
136.058573 69.499956 -9.794759 0.490492
138.535181 69.499956 -10.093117 1.169186
141.011789 69.499956 -10.482962 0.887352
143.488397 69.499956 -13.124287 -0.604052
-39.780598 67.023347 -12.278483 -0.659601
-37.303990 67.023347 -11.290402 -0.529728
-34.827382 67.023347 -11.824507 -0.673132
-32.350774 67.023347 -11.928852 -1.062860
-29.874166 67.023347 -11.820679 -1.216556
-27.397558 67.023347 -11.659238 -0.878377
-24.920950 67.023347 -12.216384 -0.405541
-22.444342 67.023347 -12.269059 -0.243322
-19.967734 67.023347 -12.166117 -0.082086
-17.491125 67.023347 -12.252872 -0.421628
-15.014517 67.023347 -11.813044 -0.706554
-12.537909 67.023347 -11.851114 -0.946221
-10.061301 67.023347 -12.261549 -1.355078
-7.584693 67.023347 -12.374198 -0.970351
-5.108085 67.023347 -12.777635 -0.242499
-2.631477 67.023347 -12.535445 -0.269665
-0.154869 67.023347 -12.036809 -0.669760
2.321739 67.023347 -12.237647 -1.081804
4.798347 67.023347 -12.281448 -0.855942
7.274955 67.023347 -12.626317 -0.729378
9.751563 67.023347 -12.534677 -0.660562
12.228171 67.023347 -12.865752 -0.239495
14.704779 67.023347 -12.767205 -0.693174
17.181387 67.023347 -12.349406 -1.341607
19.657995 67.023347 -12.871459 -0.847374
22.134603 67.023347 -13.019539 -0.481846
24.611211 67.023347 -12.585953 -0.640068
27.087819 67.023347 -12.396661 -0.391569
29.564427 67.023347 -12.491349 -0.257992
32.041035 67.023347 -12.842421 -0.382904
34.517643 67.023347 -12.820691 -0.179663
36.994251 67.023347 -12.951311 0.094655
39.470859 67.023347 -12.789194 0.428684
41.947467 67.023347 -12.649999 0.382352
44.424075 67.023347 -13.144922 -0.026939
46.900684 67.023347 -13.225217 -0.280395
49.377292 67.023347 -12.783848 -0.415104
51.853900 67.023347 -12.692335 -0.388069
54.330508 67.023347 -12.821151 -0.167702
56.807116 67.023347 -12.768045 0.026376
59.283724 67.023347 -13.020244 -0.086199
61.760332 67.023347 -12.765182 0.170692
64.236940 67.023347 -12.464925 0.480458
66.713548 67.023347 -13.003936 0.387399
69.190156 67.023347 -13.049758 0.295806
71.666764 67.023347 -12.994160 0.411055
74.143372 67.023347 -12.745818 0.656818
76.619980 67.023347 -12.208562 0.853376
79.096588 67.023347 -12.089861 0.839608
81.573196 67.023347 -12.388999 0.647800
84.049804 67.023347 -12.679408 0.725351
86.526412 67.023347 -12.015264 0.940249
89.003020 67.023347 -11.816364 1.137559
91.479628 67.023347 -11.792471 1.081530
93.956236 67.023347 -11.430694 1.256647
96.432844 67.023347 -11.848520 0.737015
98.909452 67.023347 -12.532246 0.911378
101.386060 67.023347 -12.411227 1.024252
103.862668 67.023347 -11.649535 0.579761
106.339276 67.023347 -12.308253 0.724373
108.815884 67.023347 -11.765155 0.822483
111.292493 67.023347 -11.537275 0.804063
113.769101 67.023347 -11.474812 0.721337
116.245709 67.023347 -11.592678 0.882578
118.722317 67.023347 -11.674652 0.748573
121.198925 67.023347 -10.798879 0.598760
123.675533 67.023347 -11.031292 1.746434
126.152141 67.023347 -11.330493 1.802290
128.628749 67.023347 -11.063027 0.379724
131.105357 67.023347 -11.757786 -0.398602
133.581965 67.023347 -10.765728 -0.150231
136.058573 67.023347 -9.548544 -0.089957
138.535181 67.023347 -10.469434 0.800798
141.011789 67.023347 -11.058979 0.818125
143.488397 67.023347 -11.240575 0.024046
-39.780598 64.546739 -11.893256 -0.426496
-37.303990 64.546739 -11.205698 -0.144224
-34.827382 64.546739 -12.432527 0.086125
-32.350774 64.546739 -12.977918 -0.541646
-29.874166 64.546739 -11.829095 -0.942625
-27.397558 64.546739 -12.379638 -0.255185
-24.920950 64.546739 -12.772490 -0.452478
-22.444342 64.546739 -12.207468 -0.956401
-19.967734 64.546739 -11.658983 -0.661957
-17.491125 64.546739 -11.778606 -0.753813
-15.014517 64.546739 -12.500441 -0.943404
-12.537909 64.546739 -12.674969 -1.112395
-10.061301 64.546739 -12.396279 -1.592895
-7.584693 64.546739 -12.337909 -1.668910
-5.108085 64.546739 -12.167676 -0.680819
-2.631477 64.546739 -11.875779 -0.133890
-0.154869 64.546739 -11.889171 -0.586693
2.321739 64.546739 -12.274356 -1.119117
4.798347 64.546739 -12.840351 -0.899933
7.274955 64.546739 -13.197479 -0.191102
9.751563 64.546739 -13.002087 -0.615021
12.228171 64.546739 -12.806189 -0.845360
14.704779 64.546739 -11.898326 -0.344912
17.181387 64.546739 -11.686074 -0.974749
19.657995 64.546739 -12.335425 -1.080784
22.134603 64.546739 -12.509510 -0.928619
24.611211 64.546739 -12.688038 -0.879888
27.087819 64.546739 -12.658321 -0.289306
29.564427 64.546739 -12.686271 0.033823
32.041035 64.546739 -13.064486 -0.431588
34.517643 64.546739 -13.152417 -0.156611
36.994251 64.546739 -13.106754 0.195795
39.470859 64.546739 -12.736547 -0.326911
41.947467 64.546739 -12.616042 -0.502525
44.424075 64.546739 -12.929850 -0.328776
46.900684 64.546739 -12.984394 -0.054004
49.377292 64.546739 -13.110906 0.218590
51.853900 64.546739 -12.907585 -0.103191
54.330508 64.546739 -12.942549 -0.010091
56.807116 64.546739 -13.042017 0.050107
59.283724 64.546739 -13.123732 -0.226517
61.760332 64.546739 -13.140135 -0.009228
64.236940 64.546739 -12.908118 0.184678
66.713548 64.546739 -12.935805 0.275415
69.190156 64.546739 -12.882755 0.120249
71.666764 64.546739 -12.624955 0.524682
74.143372 64.546739 -12.487591 0.985457
76.619980 64.546739 -12.341923 0.840371
79.096588 64.546739 -12.632019 0.634891
81.573196 64.546739 -12.520779 0.502056
84.049804 64.546739 -12.540507 0.884755
86.526412 64.546739 -12.645423 1.222629
89.003020 64.546739 -12.081344 1.197960
91.479628 64.546739 -12.071353 1.534530
93.956236 64.546739 -12.130856 1.911700
96.432844 64.546739 -10.988651 0.949695
98.909452 64.546739 -11.729286 1.473034
101.386060 64.546739 -11.962146 1.351320
103.862668 64.546739 -11.362603 0.354119
106.339276 64.546739 -11.884949 0.557131
108.815884 64.546739 -11.824556 0.978621
111.292493 64.546739 -11.279400 0.841643
113.769101 64.546739 -11.524504 0.940546
116.245709 64.546739 -11.445596 1.242524
118.722317 64.546739 -11.376091 0.790492
121.198925 64.546739 -10.563775 0.508323
123.675533 64.546739 -10.265418 0.984261
126.152141 64.546739 -10.981150 1.059723
128.628749 64.546739 -10.668200 0.449360
131.105357 64.546739 -11.195796 0.026413
133.581965 64.546739 -11.052387 0.632085
136.058573 64.546739 -10.483911 0.902701
138.535181 64.546739 -11.795073 0.342832
141.011789 64.546739 -11.497249 0.438039
143.488397 64.546739 -10.961680 0.531355
-39.780598 62.070131 -11.680467 -0.345832
-37.303990 62.070131 -12.113366 -0.225220
-34.827382 62.070131 -12.216728 -0.070927
-32.350774 62.070131 -11.995724 -0.423803
-29.874166 62.070131 -11.015508 -0.732401
-27.397558 62.070131 -11.846583 -0.728631
-24.920950 62.070131 -12.272834 -0.966322
-22.444342 62.070131 -11.316029 -0.921232
-19.967734 62.070131 -11.503926 -0.761636
-17.491125 62.070131 -12.122714 -0.787661
-15.014517 62.070131 -12.790999 -1.009813
-12.537909 62.070131 -12.430055 -1.009128
-10.061301 62.070131 -11.908873 -0.626414
-7.584693 62.070131 -12.230691 -0.753397
-5.108085 62.070131 -12.292337 -0.460499
-2.631477 62.070131 -12.084653 -0.315809
-0.154869 62.070131 -11.705925 -0.485169
2.321739 62.070131 -12.187071 -0.554414
4.798347 62.070131 -13.053891 -0.727116
7.274955 62.070131 -13.078462 -0.183547
9.751563 62.070131 -12.925170 -0.753484
12.228171 62.070131 -12.895271 -1.750398
14.704779 62.070131 -12.323546 -0.998424
17.181387 62.070131 -12.341197 -0.486464
19.657995 62.070131 -12.543201 -0.483856
22.134603 62.070131 -12.478610 -0.882756
24.611211 62.070131 -12.787525 -0.841610
27.087819 62.070131 -12.678910 -0.570722
29.564427 62.070131 -12.513971 -0.409982
32.041035 62.070131 -12.802152 -0.688308
34.517643 62.070131 -12.968085 -0.385909
36.994251 62.070131 -13.073688 0.127547
39.470859 62.070131 -12.706985 -0.297207
41.947467 62.070131 -12.752954 -0.083840
44.424075 62.070131 -12.912214 -0.017955
46.900684 62.070131 -12.697494 0.004381
49.377292 62.070131 -13.132588 0.278736
51.853900 62.070131 -13.216143 -0.156654
54.330508 62.070131 -13.139557 -0.085823
56.807116 62.070131 -13.002615 -0.022748
59.283724 62.070131 -12.736082 -0.134085
61.760332 62.070131 -12.866892 0.154026
64.236940 62.070131 -12.941242 0.378311
66.713548 62.070131 -13.138394 0.626681
69.190156 62.070131 -13.079400 0.541829
71.666764 62.070131 -12.853772 0.660865
74.143372 62.070131 -12.841052 0.723880
76.619980 62.070131 -12.713765 0.854076
79.096588 62.070131 -12.928347 1.136309
81.573196 62.070131 -12.692701 0.928523
84.049804 62.070131 -12.613437 0.799142
86.526412 62.070131 -12.781742 0.929897
89.003020 62.070131 -12.426285 0.929729
91.479628 62.070131 -12.549454 1.454566
93.956236 62.070131 -12.561788 2.054674
96.432844 62.070131 -11.400217 1.473724
98.909452 62.070131 -11.928821 1.227782
101.386060 62.070131 -11.999722 0.876126
103.862668 62.070131 -11.656881 0.404687
106.339276 62.070131 -12.134631 0.958117
108.815884 62.070131 -12.221936 0.917816
111.292493 62.070131 -11.745731 0.927367
113.769101 62.070131 -11.559930 0.735423
116.245709 62.070131 -11.289493 0.785558
118.722317 62.070131 -11.334472 0.951864
121.198925 62.070131 -10.919060 1.025301
123.675533 62.070131 -8.920898 1.075300
126.152141 62.070131 -10.131310 0.291157
128.628749 62.070131 -11.215155 0.983228
131.105357 62.070131 -11.494442 1.245330
133.581965 62.070131 -10.873926 0.952495
136.058573 62.070131 -11.451675 1.026822
138.535181 62.070131 -12.077188 0.167218
141.011789 62.070131 -11.381597 -0.031680
143.488397 62.070131 -11.262849 0.246573
-39.780598 59.593523 -9.850235 0.067531
-37.303990 59.593523 -11.234446 -0.669724
-34.827382 59.593523 -11.350118 -0.496628
-32.350774 59.593523 -10.965213 -0.224970
-29.874166 59.593523 -11.238800 -0.661681
-27.397558 59.593523 -10.962754 -1.359680
-24.920950 59.593523 -10.638987 -1.106781
-22.444342 59.593523 -10.490632 -0.417831
-19.967734 59.593523 -11.086924 -0.517202
-17.491125 59.593523 -12.107629 -0.953936
-15.014517 59.593523 -12.168962 -1.246754
-12.537909 59.593523 -12.244221 -0.538026
-10.061301 59.593523 -12.167660 -0.242737
-7.584693 59.593523 -12.300822 -0.488520
-5.108085 59.593523 -12.260219 -0.313491
-2.631477 59.593523 -12.134629 -0.027177
-0.154869 59.593523 -11.926657 0.148762
2.321739 59.593523 -12.252499 -1.099445
4.798347 59.593523 -12.537918 -1.042707
7.274955 59.593523 -12.726558 -0.600210
9.751563 59.593523 -12.665481 -0.789236
12.228171 59.593523 -12.255879 -1.346837
14.704779 59.593523 -12.694875 -1.146124
17.181387 59.593523 -12.900246 -0.722730
19.657995 59.593523 -12.918299 -0.668578
22.134603 59.593523 -12.662378 -0.680092
24.611211 59.593523 -12.749445 -0.871607
27.087819 59.593523 -12.949274 -0.856026
29.564427 59.593523 -12.999144 -1.209461
32.041035 59.593523 -12.501313 -1.268271
34.517643 59.593523 -12.506069 -0.555239
36.994251 59.593523 -13.050003 0.092478
39.470859 59.593523 -12.787614 0.129622
41.947467 59.593523 -12.808030 0.216438
44.424075 59.593523 -12.967038 0.215614
46.900684 59.593523 -12.874533 0.149508
49.377292 59.593523 -12.937297 0.138590
51.853900 59.593523 -13.329842 -0.125204
54.330508 59.593523 -13.469236 0.109626
56.807116 59.593523 -13.149179 -0.065341
59.283724 59.593523 -12.820178 0.025084
61.760332 59.593523 -12.599378 0.615781
64.236940 59.593523 -12.681401 0.679215
66.713548 59.593523 -12.913205 0.649343
69.190156 59.593523 -13.311791 0.953209
71.666764 59.593523 -12.973810 0.964237
74.143372 59.593523 -12.927840 0.678736
76.619980 59.593523 -12.644626 0.861962
79.096588 59.593523 -12.640464 0.676846
81.573196 59.593523 -12.699806 0.561556
84.049804 59.593523 -12.484218 0.787143
86.526412 59.593523 -12.656066 0.791471
89.003020 59.593523 -12.465096 1.053419
91.479628 59.593523 -12.156373 1.594888
93.956236 59.593523 -12.082831 1.919412
96.432844 59.593523 -11.617576 1.505181
98.909452 59.593523 -12.070607 0.727408