TITLE = "B00079"
VARIABLES = "position", "position(2)", "Vx", "Vy"
ZONE T="Frame 0", I=75, J=50
-39.780598 81.882996 -12.221253 -0.884026
-37.303990 81.882996 -12.531595 -0.288660
-34.827382 81.882996 -13.460323 -0.138026
-32.350774 81.882996 -13.359472 -0.397183
-29.874166 81.882996 -12.002602 -0.209705
-27.397558 81.882996 -10.993975 0.144661
-24.920950 81.882996 -11.448048 0.232262
-22.444342 81.882996 -12.142965 -0.154057
-19.967734 81.882996 -13.066100 -0.769094
-17.491125 81.882996 -13.257158 -0.317152
-15.014517 81.882996 -13.616272 0.392696
-12.537909 81.882996 -13.386197 0.000754
-10.061301 81.882996 -13.030493 -0.638504
-7.584693 81.882996 -13.172338 -0.779665
-5.108085 81.882996 -12.620719 0.115488
-2.631477 81.882996 -12.976475 -0.255268
-0.154869 81.882996 -13.481457 -0.565208
2.321739 81.882996 -13.040095 -0.250626
4.798347 81.882996 -12.441635 0.200754
7.274955 81.882996 -12.565027 0.446528
9.751563 81.882996 -12.937807 0.216220
12.228171 81.882996 -12.951944 0.159515
14.704779 81.882996 -13.063936 0.626999
17.181387 81.882996 -13.168398 0.652316
19.657995 81.882996 -13.000319 0.278435
22.134603 81.882996 -13.241996 0.131693
24.611211 81.882996 -13.128850 0.094984
27.087819 81.882996 -13.056399 0.543193
29.564427 81.882996 -12.805594 0.881231
32.041035 81.882996 -12.644491 0.474820
34.517643 81.882996 -12.500856 0.658431
36.994251 81.882996 -12.818695 0.632247
39.470859 81.882996 -13.126076 0.509735
41.947467 81.882996 -13.070284 0.546259
44.424075 81.882996 -13.215116 0.102513
46.900684 81.882996 -13.081899 0.672749
49.377292 81.882996 -12.599798 1.460757
51.853900 81.882996 -13.073730 1.106635
54.330508 81.882996 -13.417901 1.427176
56.807116 81.882996 -12.890345 1.790746
59.283724 81.882996 -12.836392 1.620500
61.760332 81.882996 -13.031476 1.589081
64.236940 81.882996 -12.732805 1.093755
66.713548 81.882996 -12.589031 0.873601
69.190156 81.882996 -12.786034 0.633460
71.666764 81.882996 -13.040737 0.775141
74.143372 81.882996 -12.901419 1.161803
76.619980 81.882996 -12.552633 1.182106
79.096588 81.882996 -11.901366 1.277195
81.573196 81.882996 -12.125673 1.128716
84.049804 81.882996 -12.050193 0.824759
86.526412 81.882996 -12.319135 0.646233
89.003020 81.882996 -12.519515 0.606686
91.479628 81.882996 -12.666186 1.103988
93.956236 81.882996 -12.283389 1.030707
96.432844 81.882996 -12.087631 1.389378
98.909452 81.882996 -12.005637 1.570759
101.386060 81.882996 -11.383212 0.929117
103.862668 81.882996 -12.038917 1.292058
106.339276 81.882996 -11.906185 1.500713
108.815884 81.882996 -11.833882 1.177210
111.292493 81.882996 -11.520770 0.722108
113.769101 81.882996 -11.551756 1.140275
116.245709 81.882996 -10.881245 1.629884
118.722317 81.882996 -9.556539 1.018397
121.198925 81.882996 -11.232161 0.733277
123.675533 81.882996 -11.082949 0.840529
126.152141 81.882996 -11.038590 0.850362
128.628749 81.882996 -11.198007 0.352785
131.105357 81.882996 -11.232989 0.627874
133.581965 81.882996 -12.037999 1.691986
136.058573 81.882996 -12.046541 1.623972
138.535181 81.882996 -10.971358 0.604934
141.011789 81.882996 -10.595780 0.362511
143.488397 81.882996 -10.201152 0.052978
-39.780598 79.406388 -10.810792 -1.307784
-37.303990 79.406388 -11.349044 -1.689631
-34.827382 79.406388 -13.206422 -1.294618
-32.350774 79.406388 -13.568241 -0.606066
-29.874166 79.406388 -12.319650 -0.056564
-27.397558 79.406388 -11.808339 -0.185182
-24.920950 79.406388 -12.271013 0.221942
-22.444342 79.406388 -12.672486 -0.056987
-19.967734 79.406388 -13.108475 -1.369849
-17.491125 79.406388 -13.633192 -0.739704
-15.014517 79.406388 -13.876103 0.237113
-12.537909 79.406388 -13.092762 -0.159339
-10.061301 79.406388 -12.908351 -0.391346
-7.584693 79.406388 -13.267755 -0.757820
-5.108085 79.406388 -13.319789 -0.382134
-2.631477 79.406388 -13.193941 -0.205929
-0.154869 79.406388 -13.108463 -0.174137
2.321739 79.406388 -12.966851 -0.056537
4.798347 79.406388 -12.695553 0.073226
7.274955 79.406388 -12.453221 0.430260
9.751563 79.406388 -12.949944 0.442224
12.228171 79.406388 -13.208070 0.147200
14.704779 79.406388 -13.098229 0.414585
17.181387 79.406388 -12.990640 0.591112
19.657995 79.406388 -12.831745 -0.121186
22.134603 79.406388 -13.210574 0.060067
24.611211 79.406388 -13.234466 0.465708
27.087819 79.406388 -13.055046 0.703264
29.564427 79.406388 -12.910585 0.918443
32.041035 79.406388 -12.886841 0.400100
34.517643 79.406388 -12.872498 0.581887
36.994251 79.406388 -12.740811 0.728955
39.470859 79.406388 -12.745647 0.583403
41.947467 79.406388 -13.057186 0.439474
44.424075 79.406388 -13.190987 0.512194
46.900684 79.406388 -13.379240 1.194814
49.377292 79.406388 -12.730825 1.403554
51.853900 79.406388 -12.973019 1.199092
54.330508 79.406388 -13.301266 1.371790
56.807116 79.406388 -12.691927 1.484442
59.283724 79.406388 -12.803951 1.285750
61.760332 79.406388 -12.916167 1.464928
64.236940 79.406388 -12.533854 1.425255
66.713548 79.406388 -12.389977 1.235011
69.190156 79.406388 -12.288096 0.668305
71.666764 79.406388 -12.940598 0.517900
74.143372 79.406388 -12.997717 0.793113
76.619980 79.406388 -12.635481 1.121058
79.096588 79.406388 -12.233664 1.550913
81.573196 79.406388 -12.310340 1.244344
84.049804 79.406388 -12.051602 0.775296
86.526412 79.406388 -12.059880 0.908308
89.003020 79.406388 -12.241954 1.046146
91.479628 79.406388 -12.129255 1.118339
93.956236 79.406388 -12.286096 1.117483
96.432844 79.406388 -11.870602 1.720829
98.909452 79.406388 -11.567393 1.672400
101.386060 79.406388 -11.523408 1.446113
103.862668 79.406388 -12.068267 1.496299
106.339276 79.406388 -12.067523 1.443719
108.815884 79.406388 -11.979672 1.066803
111.292493 79.406388 -11.468656 0.829173
113.769101 79.406388 -11.337457 0.851124
116.245709 79.406388 -11.301348 1.285647
118.722317 79.406388 -9.879129 1.597894
121.198925 79.406388 -11.021302 0.950143
123.675533 79.406388 -10.797715 1.296860
126.152141 79.406388 -10.416555 1.074111
128.628749 79.406388 -10.867285 0.413252
131.105357 79.406388 -11.423123 0.335762
133.581965 79.406388 -11.543706 1.281862
136.058573 79.406388 -11.759232 0.217818
138.535181 79.406388 -11.461187 0.019293
141.011789 79.406388 -10.931202 1.034764
143.488397 79.406388 -10.720704 0.409528
-39.780598 76.929780 -11.731502 -1.751492
-37.303990 76.929780 -11.287449 -1.809293
-34.827382 76.929780 -12.192286 -0.858193
-32.350774 76.929780 -13.009916 -0.379492
-29.874166 76.929780 -12.959508 -0.630387
-27.397558 76.929780 -12.692243 -0.287833
-24.920950 76.929780 -13.015432 -0.202816
-22.444342 76.929780 -12.986623 -0.395088
-19.967734 76.929780 -13.244004 -1.175762
-17.491125 76.929780 -13.629190 -0.800458
-15.014517 76.929780 -13.317972 -0.478592
-12.537909 76.929780 -12.848801 -0.479453
-10.061301 76.929780 -12.717915 -0.164952
-7.584693 76.929780 -12.867050 -0.394920
-5.108085 76.929780 -13.286280 -0.199282
-2.631477 76.929780 -13.590165 -0.044195
-0.154869 76.929780 -13.122948 0.045142
2.321739 76.929780 -13.196155 0.092761
4.798347 76.929780 -13.304050 -0.133366
7.274955 76.929780 -12.906028 0.213646
9.751563 76.929780 -12.449548 0.586942
12.228171 76.929780 -12.929577 -0.023862
14.704779 76.929780 -13.289608 0.131349
17.181387 76.929780 -12.985867 0.385919
19.657995 76.929780 -12.928177 -0.157850
22.134603 76.929780 -13.327079 -0.169142
24.611211 76.929780 -13.353887 0.079126
27.087819 76.929780 -13.004013 0.258805
29.564427 76.929780 -12.913908 0.927063
32.041035 76.929780 -13.186975 0.683370
34.517643 76.929780 -13.258114 0.526904
36.994251 76.929780 -13.074306 1.143946
39.470859 76.929780 -12.924890 1.381028
41.947467 76.929780 -12.958682 0.962112
44.424075 76.929780 -12.831218 0.944613
46.900684 76.929780 -12.895122 1.177259
49.377292 76.929780 -12.691024 1.063990
51.853900 76.929780 -12.823701 1.230212
54.330508 76.929780 -12.740957 1.256257
56.807116 76.929780 -12.678426 1.273532
59.283724 76.929780 -13.013252 1.017416
61.760332 76.929780 -12.527479 1.222782
64.236940 76.929780 -12.371734 1.651866
66.713548 76.929780 -12.527207 1.368023
69.190156 76.929780 -12.322650 1.149771
71.666764 76.929780 -12.464753 1.205518
74.143372 76.929780 -12.573035 1.281797
76.619980 76.929780 -12.542521 1.372819
79.096588 76.929780 -12.416029 1.329594
81.573196 76.929780 -12.345917 1.051059
84.049804 76.929780 -12.192190 1.079060
86.526412 76.929780 -12.351534 1.307456
89.003020 76.929780 -12.468513 1.273965
91.479628 76.929780 -11.993725 1.297638
93.956236 76.929780 -12.054828 1.547055
96.432844 76.929780 -11.773427 1.847809
98.909452 76.929780 -11.351813 1.549320
101.386060 76.929780 -11.254484 1.186030
103.862668 76.929780 -11.365332 1.617150
106.339276 76.929780 -11.717553 1.520125
108.815884 76.929780 -11.784338 1.184027
111.292493 76.929780 -11.334917 1.056762
113.769101 76.929780 -11.066879 1.068258
116.245709 76.929780 -11.249953 1.459251
118.722317 76.929780 -11.417621 1.199266
121.198925 76.929780 -11.189775 0.491425
123.675533 76.929780 -10.455414 1.437142
126.152141 76.929780 -10.040560 1.060854
128.628749 76.929780 -10.397192 0.651197
131.105357 76.929780 -11.174072 0.908473
133.581965 76.929780 -11.687790 0.926649
136.058573 76.929780 -11.754950 -0.508069
138.535181 76.929780 -11.455237 -0.034602
141.011789 76.929780 -11.320914 1.811286
143.488397 76.929780 -11.205894 1.090544
-39.780598 74.453172 -12.586777 -1.745207
-37.303990 74.453172 -11.962327 -1.877790
-34.827382 74.453172 -11.617202 -0.979898
-32.350774 74.453172 -12.699929 -1.054113
-29.874166 74.453172 -13.384832 -1.474401
-27.397558 74.453172 -13.004451 -0.303006
-24.920950 74.453172 -13.117095 -0.104899
-22.444342 74.453172 -12.946493 -1.181467
-19.967734 74.453172 -13.301074 -1.233938
-17.491125 74.453172 -13.776061 -0.939936
-15.014517 74.453172 -13.688735 -0.659268
-12.537909 74.453172 -12.850923 -0.266353
-10.061301 74.453172 -12.857735 -0.533251
-7.584693 74.453172 -12.864577 -0.671382
-5.108085 74.453172 -12.811496 0.079267
-2.631477 74.453172 -13.461707 -0.157688
-0.154869 74.453172 -13.326807 -0.340660
2.321739 74.453172 -13.336777 0.037885
4.798347 74.453172 -13.538036 -0.028329
7.274955 74.453172 -13.106538 0.289624
9.751563 74.453172 -12.134477 0.661024
12.228171 74.453172 -12.714987 0.265597
14.704779 74.453172 -13.024304 -0.013092
17.181387 74.453172 -12.776149 0.243139
19.657995 74.453172 -13.136403 0.357405
22.134603 74.453172 -13.625591 0.243439
24.611211 74.453172 -13.303258 0.575153
27.087819 74.453172 -12.739679 0.838263
29.564427 74.453172 -12.942677 1.293992
32.041035 74.453172 -13.242963 0.957706
34.517643 74.453172 -13.052311 0.589959
36.994251 74.453172 -12.932064 1.149149
39.470859 74.453172 -12.946293 1.453065
41.947467 74.453172 -12.643097 1.286212
44.424075 74.453172 -12.588545 1.115020
46.900684 74.453172 -12.797531 1.354066
49.377292 74.453172 -12.577537 1.291643
51.853900 74.453172 -12.693111 1.390966
54.330508 74.453172 -12.492718 1.481634
56.807116 74.453172 -12.483070 1.421661
59.283724 74.453172 -12.773376 1.131281
61.760332 74.453172 -12.453640 1.181762
64.236940 74.453172 -12.377801 1.554686
66.713548 74.453172 -12.777960 1.535178
69.190156 74.453172 -13.054392 1.563432
71.666764 74.453172 -12.466128 1.257426
74.143372 74.453172 -12.484867 1.410087
76.619980 74.453172 -12.766667 1.719521
79.096588 74.453172 -12.715627 1.069157
81.573196 74.453172 -12.383299 1.006926
84.049804 74.453172 -12.217106 1.228628
86.526412 74.453172 -12.224946 1.581344
89.003020 74.453172 -12.500589 1.652725
91.479628 74.453172 -12.330852 1.525701
93.956236 74.453172 -11.799598 1.320698
96.432844 74.453172 -11.618893 1.145824
98.909452 74.453172 -11.629914 1.484903
101.386060 74.453172 -11.322897 1.497630
103.862668 74.453172 -10.915820 1.562354
106.339276 74.453172 -11.545407 1.831082
108.815884 74.453172 -12.134737 1.559146
111.292493 74.453172 -11.819468 1.020763
113.769101 74.453172 -11.400173 1.088575
116.245709 74.453172 -11.460424 1.866072
118.722317 74.453172 -11.425762 1.096596
121.198925 74.453172 -11.395397 0.296405
123.675533 74.453172 -10.729727 0.949509
126.152141 74.453172 -10.851101 0.802566
128.628749 74.453172 -10.282993 0.965557
131.105357 74.453172 -10.447717 1.413627
133.581965 74.453172 -11.326484 1.287030
136.058573 74.453172 -11.026304 0.540161
138.535181 74.453172 -10.745514 1.025607
141.011789 74.453172 -10.819905 1.815183
143.488397 74.453172 -10.723509 1.902744
-39.780598 71.976564 -11.420347 -1.984899
-37.303990 71.976564 -12.006009 -1.841296
-34.827382 71.976564 -12.569742 -1.174664
-32.350774 71.976564 -12.613139 -1.139873
-29.874166 71.976564 -13.145024 -1.256114
-27.397558 71.976564 -12.727459 -0.888170
-24.920950 71.976564 -12.485385 -0.389923
-22.444342 71.976564 -12.624225 -0.670741
-19.967734 71.976564 -13.060188 -1.141758
-17.491125 71.976564 -13.594425 -1.574253
-15.014517 71.976564 -13.750595 -1.134767
-12.537909 71.976564 -13.012054 -0.376501
-10.061301 71.976564 -12.909270 -0.615438
-7.584693 71.976564 -12.871643 -0.052505
-5.108085 71.976564 -12.735038 0.385456
-2.631477 71.976564 -13.426440 0.157048
-0.154869 71.976564 -13.420294 -0.015159
2.321739 71.976564 -13.101374 -0.027175
4.798347 71.976564 -13.169058 0.048479
7.274955 71.976564 -13.197268 0.279552
9.751563 71.976564 -12.830639 0.495633
12.228171 71.976564 -12.749028 0.621763
14.704779 71.976564 -12.770190 0.530377
17.181387 71.976564 -12.968427 0.611858
19.657995 71.976564 -13.146057 0.707224
22.134603 71.976564 -13.453045 0.581654
24.611211 71.976564 -13.223013 0.599682
27.087819 71.976564 -12.981809 0.553201
29.564427 71.976564 -13.263280 1.075617
32.041035 71.976564 -13.069110 0.979658
34.517643 71.976564 -12.700735 0.763515
36.994251 71.976564 -12.615181 0.907389
39.470859 71.976564 -12.860629 1.007522
41.947467 71.976564 -12.881564 1.190299
44.424075 71.976564 -12.737573 1.226107
46.900684 71.976564 -12.932399 1.588049
49.377292 71.976564 -12.843477 1.521624
51.853900 71.976564 -12.858853 0.964398
54.330508 71.976564 -12.496044 1.211995
56.807116 71.976564 -12.054096 1.248980
59.283724 71.976564 -12.283200 1.105299
61.760332 71.976564 -12.512111 1.340134
64.236940 71.976564 -12.621403 1.291416
66.713548 71.976564 -13.102359 1.533897
69.190156 71.976564 -12.864471 2.010670
71.666764 71.976564 -12.230912 1.671472
74.143372 71.976564 -12.633017 1.245841
76.619980 71.976564 -13.114520 1.942384
79.096588 71.976564 -13.352933 1.806458
81.573196 71.976564 -12.778468 1.738420
84.049804 71.976564 -12.244447 1.874959
86.526412 71.976564 -11.971828 1.745351
89.003020 71.976564 -12.206161 1.808517
91.479628 71.976564 -12.253813 1.505597
93.956236 71.976564 -11.549965 1.041819
96.432844 71.976564 -11.992071 0.997792
98.909452 71.976564 -11.685987 1.246312
101.386060 71.976564 -11.086694 1.521574
103.862668 71.976564 -11.249210 1.894934
106.339276 71.976564 -12.080375 2.060618
108.815884 71.976564 -12.103945 1.716904
111.292493 71.976564 -12.019634 1.366757
113.769101 71.976564 -11.515066 1.130907
116.245709 71.976564 -11.479684 1.194510
118.722317 71.976564 -11.440678 1.397891
121.198925 71.976564 -11.472005 1.391757
123.675533 71.976564 -10.554837 0.561111
126.152141 71.976564 -11.278280 0.994427
128.628749 71.976564 -11.000095 1.542370
131.105357 71.976564 -10.664593 1.379564
133.581965 71.976564 -11.327680 1.297440
136.058573 71.976564 -10.893324 0.824076
138.535181 71.976564 -10.174258 0.476343
141.011789 71.976564 -10.264864 1.225392
143.488397 71.976564 -10.054345 1.536510
-39.780598 69.499956 -11.264555 -1.777111
-37.303990 69.499956 -11.968012 -1.669269
-34.827382 69.499956 -12.477496 -1.861132
-32.350774 69.499956 -12.765315 -1.958009
-29.874166 69.499956 -12.963978 -1.336601
-27.397558 69.499956 -12.780074 -1.130475
-24.920950 69.499956 -12.710124 -0.534323
-22.444342 69.499956 -12.405901 -0.517258
-19.967734 69.499956 -13.058973 -1.048010
-17.491125 69.499956 -13.590209 -1.165120
-15.014517 69.499956 -13.277161 -0.574622
-12.537909 69.499956 -12.778246 -0.580304
-10.061301 69.499956 -12.976397 -0.643629
-7.584693 69.499956 -13.105347 -0.221652
-5.108085 69.499956 -12.836490 -0.069284
-2.631477 69.499956 -13.363881 -0.000129
-0.154869 69.499956 -13.171156 0.106414
2.321739 69.499956 -13.070447 -0.100610
4.798347 69.499956 -13.482511 -0.163378
7.274955 69.499956 -13.649153 0.640391
9.751563 69.499956 -13.568411 0.945421
12.228171 69.499956 -13.175407 0.635038
14.704779 69.499956 -13.012219 0.336053
17.181387 69.499956 -13.103343 0.558907
19.657995 69.499956 -13.128754 0.664969
22.134603 69.499956 -13.201031 0.576688
24.611211 69.499956 -13.221783 0.683362
27.087819 69.499956 -13.258115 0.768804
29.564427 69.499956 -13.325294 1.313334
32.041035 69.499956 -12.961682 1.260329
34.517643 69.499956 -12.580434 0.908213
36.994251 69.499956 -12.826065 1.360618
39.470859 69.499956 -13.181783 1.192990
41.947467 69.499956 -13.442043 0.627515
44.424075 69.499956 -13.012357 0.837671
46.900684 69.499956 -12.916500 1.334760
49.377292 69.499956 -13.005535 1.600352
51.853900 69.499956 -12.775292 1.709789
54.330508 69.499956 -12.534378 1.732468
56.807116 69.499956 -12.282191 1.416478
59.283724 69.499956 -12.691945 1.424558
61.760332 69.499956 -12.986968 1.576661
64.236940 69.499956 -13.097041 1.163782
66.713548 69.499956 -13.180268 1.402171
69.190156 69.499956 -12.792114 1.983279
71.666764 69.499956 -12.167272 1.923897
74.143372 69.499956 -12.493072 1.699298
76.619980 69.499956 -12.956082 1.774170
79.096588 69.499956 -13.198940 2.031815
81.573196 69.499956 -12.841992 2.124156
84.049804 69.499956 -12.183143 1.981402
86.526412 69.499956 -12.140795 1.806585
89.003020 69.499956 -12.094578 2.025845
91.479628 69.499956 -11.889515 2.098978
93.956236 69.499956 -11.429497 2.043712
96.432844 69.499956 -12.665832 2.003976
98.909452 69.499956 -11.800602 1.773132
101.386060 69.499956 -11.277634 1.617263
103.862668 69.499956 -11.523474 1.552048
106.339276 69.499956 -11.911729 1.644328
108.815884 69.499956 -11.545938 1.486660
111.292493 69.499956 -11.764950 1.479675
113.769101 69.499956 -11.337544 1.455299
116.245709 69.499956 -11.133026 0.848601
118.722317 69.499956 -11.290492 0.851569
121.198925 69.499956 -11.044761 1.322327
123.675533 69.499956 -10.554261 0.972967
126.152141 69.499956 -11.156297 1.096684
128.628749 69.499956 -11.202474 1.351442
131.105357 69.499956 -11.480972 1.277540
133.581965 69.499956 -11.670778 1.118131
136.058573 69.499956 -10.829398 1.229895
138.535181 69.499956 -10.751601 1.128975
141.011789 69.499956 -11.005494 1.249460
143.488397 69.499956 -10.546074 0.631005
-39.780598 67.023347 -10.572867 -1.474380
-37.303990 67.023347 -12.157558 -1.427632
-34.827382 67.023347 -12.701218 -0.876818
-32.350774 67.023347 -12.966167 -1.507701
-29.874166 67.023347 -13.153015 -1.479031
-27.397558 67.023347 -13.350744 -1.044943
-24.920950 67.023347 -13.475214 -0.609133
-22.444342 67.023347 -12.726073 -0.758649
-19.967734 67.023347 -13.301056 -0.425280
-17.491125 67.023347 -13.652196 -0.276042
-15.014517 67.023347 -13.480774 -0.132125
-12.537909 67.023347 -13.144781 -0.277660
-10.061301 67.023347 -13.257156 -0.685645
-7.584693 67.023347 -13.403893 -0.450217
-5.108085 67.023347 -12.982284 -0.164626
-2.631477 67.023347 -13.028191 -0.015796
-0.154869 67.023347 -12.731348 0.033963
2.321739 67.023347 -12.940812 0.022606
4.798347 67.023347 -13.667744 0.154457
7.274955 67.023347 -13.609706 0.473922
9.751563 67.023347 -13.483933 0.835723
12.228171 67.023347 -13.517574 0.790420
14.704779 67.023347 -13.479926 0.309913
17.181387 67.023347 -13.089603 0.306396
19.657995 67.023347 -13.176651 0.323711
22.134603 67.023347 -13.367562 0.353339
24.611211 67.023347 -13.108774 0.795968
27.087819 67.023347 -13.128317 0.895371
29.564427 67.023347 -12.995278 1.051151
32.041035 67.023347 -13.014069 1.177854
34.517643 67.023347 -12.662461 1.124669
36.994251 67.023347 -12.424798 1.423553
39.470859 67.023347 -12.924675 1.027667
41.947467 67.023347 -13.459886 0.389041
44.424075 67.023347 -13.147539 1.021991
46.900684 67.023347 -13.157197 1.386291
49.377292 67.023347 -13.430781 1.238130
51.853900 67.023347 -12.988307 1.802789
54.330508 67.023347 -12.963266 1.824019
56.807116 67.023347 -12.874646 1.392768
59.283724 67.023347 -13.140322 1.343781
61.760332 67.023347 -13.235890 1.441875
64.236940 67.023347 -13.022413 1.144502
66.713548 67.023347 -12.905281 1.369270
69.190156 67.023347 -13.143648 1.671090
71.666764 67.023347 -13.160287 1.751683
74.143372 67.023347 -12.819439 1.705706
76.619980 67.023347 -12.859005 1.699617
79.096588 67.023347 -12.947030 2.179173
81.573196 67.023347 -12.723627 2.208011
84.049804 67.023347 -12.181522 1.767710
86.526412 67.023347 -12.105699 1.727227
89.003020 67.023347 -11.938858 2.031242
91.479628 67.023347 -11.656678 2.513999
93.956236 67.023347 -11.578252 2.604004
96.432844 67.023347 -12.610337 2.473540
98.909452 67.023347 -12.157809 2.278519
101.386060 67.023347 -11.796821 1.908373
103.862668 67.023347 -11.566991 1.390031
106.339276 67.023347 -11.265400 1.668895
108.815884 67.023347 -11.486252 1.829706
111.292493 67.023347 -11.630077 1.565661
113.769101 67.023347 -11.626556 1.694674
116.245709 67.023347 -11.031646 1.437747
118.722317 67.023347 -10.438405 1.058403
121.198925 67.023347 -9.637959 1.605990
123.675533 67.023347 -10.335508 1.656399
126.152141 67.023347 -11.048981 1.422715
128.628749 67.023347 -10.944576 1.782647
131.105357 67.023347 -11.319279 1.367750
133.581965 67.023347 -11.000135 0.569689
136.058573 67.023347 -10.317075 1.211659
138.535181 67.023347 -10.753356 1.648454
141.011789 67.023347 -11.290615 1.731173
143.488397 67.023347 -11.202523 1.462208
-39.780598 64.546739 -10.155016 -1.366053
-37.303990 64.546739 -12.294142 -0.960560
-34.827382 64.546739 -12.766440 -0.384756
-32.350774 64.546739 -12.513479 -0.858447
-29.874166 64.546739 -12.912096 -0.737340
-27.397558 64.546739 -13.122132 -0.592441
-24.920950 64.546739 -13.226901 -1.098208
-22.444342 64.546739 -13.363825 -1.322207
-19.967734 64.546739 -13.769716 -0.481455
-17.491125 64.546739 -13.421988 -0.368999
-15.014517 64.546739 -13.276166 -0.294155
-12.537909 64.546739 -13.522465 -0.065970
-10.061301 64.546739 -13.521968 -0.113930
-7.584693 64.546739 -13.495633 0.253233
-5.108085 64.546739 -13.150473 0.154925
-2.631477 64.546739 -12.988238 0.275702
-0.154869 64.546739 -12.798424 0.442760
2.321739 64.546739 -13.081737 0.191624
4.798347 64.546739 -13.338417 0.167757
7.274955 64.546739 -13.355973 -0.043610
9.751563 64.546739 -13.232237 -0.056210
12.228171 64.546739 -13.363211 0.354577
14.704779 64.546739 -13.522552 0.535199
17.181387 64.546739 -13.230264 0.402192
19.657995 64.546739 -12.993873 0.205758
22.134603 64.546739 -13.057298 0.350150
24.611211 64.546739 -12.927571 0.603019
27.087819 64.546739 -12.817117 0.873047
29.564427 64.546739 -12.989892 1.217147
32.041035 64.546739 -13.216784 1.368876
34.517643 64.546739 -12.935980 1.472423
36.994251 64.546739 -12.569737 0.833411
39.470859 64.546739 -12.904871 0.620180
41.947467 64.546739 -13.420396 1.178011
44.424075 64.546739 -13.291301 1.344073
46.900684 64.546739 -13.189624 1.241196
49.377292 64.546739 -13.521524 1.112566
51.853900 64.546739 -13.293319 1.163674
54.330508 64.546739 -13.179049 1.470975
56.807116 64.546739 -13.433205 1.646870
59.283724 64.546739 -13.230523 1.505408
61.760332 64.546739 -13.040452 1.281484
64.236940 64.546739 -13.001162 1.265044
66.713548 64.546739 -12.852402 1.454971
69.190156 64.546739 -12.820617 1.941454
71.666764 64.546739 -13.097802 1.972116
74.143372 64.546739 -13.070625 1.635556
76.619980 64.546739 -12.729955 1.815104
79.096588 64.546739 -12.803508 1.973935
81.573196 64.546739 -12.599845 1.945567
84.049804 64.546739 -12.223960 1.945209
86.526412 64.546739 -12.339890 2.018789
89.003020 64.546739 -12.165890 1.943810
91.479628 64.546739 -11.765911 1.949190
93.956236 64.546739 -11.691522 2.044257
96.432844 64.546739 -11.994411 1.638962
98.909452 64.546739 -11.938820 1.956729
101.386060 64.546739 -11.659286 1.908005
103.862668 64.546739 -10.360178 1.071373
106.339276 64.546739 -10.419254 1.445079
108.815884 64.546739 -11.629996 2.001518
111.292493 64.546739 -11.445430 1.744139
113.769101 64.546739 -10.935014 1.359720
116.245709 64.546739 -11.070666 1.406941
118.722317 64.546739 -10.808749 1.396026
121.198925 64.546739 -11.526902 1.384000
123.675533 64.546739 -11.588340 1.130518
126.152141 64.546739 -11.278663 1.148641
128.628749 64.546739 -11.134080 1.807853
131.105357 64.546739 -11.370005 1.817877
133.581965 64.546739 -10.956404 0.987678
136.058573 64.546739 -10.989319 1.287123
138.535181 64.546739 -11.295242 0.875307
141.011789 64.546739 -10.951730 1.051374
143.488397 64.546739 -11.379734 1.895953
-39.780598 62.070131 -10.429362 -2.230005
-37.303990 62.070131 -11.717225 -1.938179
-34.827382 62.070131 -12.271346 -2.396163
-32.350774 62.070131 -12.014315 -2.523647
-29.874166 62.070131 -12.321671 -1.748394
-27.397558 62.070131 -12.892188 -0.925195
-24.920950 62.070131 -13.164244 -0.987998
-22.444342 62.070131 -13.444932 -1.096017
-19.967734 62.070131 -13.923578 -0.653199
-17.491125 62.070131 -13.698095 0.147846
-15.014517 62.070131 -13.045065 -0.374368
-12.537909 62.070131 -13.413640 -0.861183
-10.061301 62.070131 -13.513493 -0.409763
-7.584693 62.070131 -13.644413 0.241670
-5.108085 62.070131 -13.649409 0.403978
-2.631477 62.070131 -12.705483 0.022626
-0.154869 62.070131 -12.889880 0.448594
2.321739 62.070131 -13.575202 0.643490
4.798347 62.070131 -13.141091 0.037959
7.274955 62.070131 -12.974020 -0.075541
9.751563 62.070131 -13.358327 0.108417
12.228171 62.070131 -13.555034 0.733441
14.704779 62.070131 -13.549971 0.777064
17.181387 62.070131 -13.630352 0.485449
19.657995 62.070131 -13.418861 0.242435
22.134603 62.070131 -13.048498 0.461069
24.611211 62.070131 -12.999249 0.389632
27.087819 62.070131 -13.026030 0.659057
29.564427 62.070131 -13.412101 1.141725
32.041035 62.070131 -13.402760 1.512328
34.517643 62.070131 -13.480878 1.954755
36.994251 62.070131 -13.668264 1.482991
39.470859 62.070131 -13.236901 1.394422
41.947467 62.070131 -13.466690 1.888154
44.424075 62.070131 -13.643115 1.278356
46.900684 62.070131 -13.408400 1.439560
49.377292 62.070131 -13.325175 1.826677
51.853900 62.070131 -13.176115 1.787988
54.330508 62.070131 -13.164100 1.610369
56.807116 62.070131 -13.384846 1.510839
59.283724 62.070131 -13.085820 1.961796
61.760332 62.070131 -12.979874 2.072692
64.236940 62.070131 -13.040875 1.576075
66.713548 62.070131 -12.638525 1.675927
69.190156 62.070131 -12.403212 2.307499
71.666764 62.070131 -12.542484 2.173891
74.143372 62.070131 -12.574790 1.926272
76.619980 62.070131 -12.532288 2.074551
79.096588 62.070131 -12.462773 1.989716
81.573196 62.070131 -12.346394 1.522883
84.049804 62.070131 -12.106106 1.528209
86.526412 62.070131 -12.428203 2.255849
89.003020 62.070131 -12.453782 2.116819
91.479628 62.070131 -12.004403 1.650959
93.956236 62.070131 -11.781331 1.580735
96.432844 62.070131 -11.592552 1.268884
98.909452 62.070131 -11.360313 1.687532
101.386060 62.070131 -11.382329 1.800415
103.862668 62.070131 -10.869462 1.798358
106.339276 62.070131 -10.993858 1.242734
108.815884 62.070131 -11.621570 1.684553
111.292493 62.070131 -11.375771 1.800100
113.769101 62.070131 -10.810000 1.235648
116.245709 62.070131 -10.732923 0.938656
118.722317 62.070131 -10.672248 1.172434
121.198925 62.070131 -11.628402 0.735405
123.675533 62.070131 -11.895908 1.125560
126.152141 62.070131 -11.695917 1.316557
128.628749 62.070131 -11.401146 0.964023
131.105357 62.070131 -11.035264 1.297753
133.581965 62.070131 -10.889584 0.724797
136.058573 62.070131 -11.409230 0.839544
138.535181 62.070131 -11.567532 1.041817
141.011789 62.070131 -10.925337 0.974585
143.488397 62.070131 -11.238299 1.779525
-39.780598 59.593523 -11.765459 -1.548812
-37.303990 59.593523 -11.804097 -1.794820
-34.827382 59.593523 -12.425322 -2.610663
-32.350774 59.593523 -12.603877 -2.301068
-29.874166 59.593523 -12.173529 -2.374114
-27.397558 59.593523 -12.577140 -2.021528
-24.920950 59.593523 -13.142563 -0.930135
-22.444342 59.593523 -13.540103 -0.763217
-19.967734 59.593523 -13.468216 -0.959289
-17.491125 59.593523 -13.672959 -0.474743
-15.014517 59.593523 -13.142833 -0.298459
-12.537909 59.593523 -13.207918 -0.408821
-10.061301 59.593523 -13.414885 -0.075121
-7.584693 59.593523 -13.678422 0.653210
-5.108085 59.593523 -13.655892 1.017416
-2.631477 59.593523 -12.865166 0.264961
-0.154869 59.593523 -13.167862 0.546240
2.321739 59.593523 -13.333217 1.271749
4.798347 59.593523 -12.951967 0.485803
7.274955 59.593523 -13.156388 0.044725
9.751563 59.593523 -13.355789 0.196049
12.228171 59.593523 -13.567910 0.582705
14.704779 59.593523 -13.434432 0.533979
17.181387 59.593523 -13.509255 0.377081
19.657995 59.593523 -13.496653 0.395779
22.134603 59.593523 -13.196978 0.565637
24.611211 59.593523 -13.330619 0.950727
27.087819 59.593523 -13.725264 1.071292
29.564427 59.593523 -13.593453 1.082097
32.041035 59.593523 -13.165710 1.635085
34.517643 59.593523 -13.496604 2.092395
36.994251 59.593523 -13.944160 1.831643
39.470859 59.593523 -13.521558 1.970708
41.947467 59.593523 -13.414326 1.892649
44.424075 59.593523 -13.479638 1.629158
46.900684 59.593523 -13.506087 2.015859
49.377292 59.593523 -13.319993 2.164037
51.853900 59.593523 -12.846894 2.200654
54.330508 59.593523 -12.928663 2.117519
56.807116 59.593523 -12.939616 1.986756
59.283724 59.593523 -12.630526 2.311294
61.760332 59.593523 -13.089994 2.281129
64.236940 59.593523 -13.150483 2.127129
66.713548 59.593523 -12.682015 2.119699
69.190156 59.593523 -12.796195 1.907618
71.666764 59.593523 -12.738747 2.074776
74.143372 59.593523 -12.312304 2.306946
76.619980 59.593523 -12.572398 2.291878
79.096588 59.593523 -12.276696 2.573123
81.573196 59.593523 -11.847856 2.140739
84.049804 59.593523 -11.970334 1.794789
86.526412 59.593523 -12.274398 2.652226
89.003020 59.593523 -12.195917 2.623371
91.479628 59.593523 -11.974645 2.077608
93.956236 59.593523 -11.787072 1.884018
96.432844 59.593523 -11.783000 1.651312
98.909452 59.593523 -11.476680 1.963895
101.386060 59.593523 -11.416245 2.183962
103.862668 59.593523 -11.258065 2.341974
106.339276 59.593523 -11.191862 1.574242
108.815884 59.593523 -11.293051 1.642020
111.292493 59.593523 -11.213552 1.588361