TITLE = "B00099"
VARIABLES = "position", "position(2)", "Vx", "Vy"
ZONE T="Frame 0", I=75, J=50
-39.780598 81.882996 -12.129436 -0.803877
-37.303990 81.882996 -12.899093 -0.419534
-34.827382 81.882996 -13.213345 -0.452737
-32.350774 81.882996 -12.529683 -1.376320
-29.874166 81.882996 -12.368035 -0.982404
-27.397558 81.882996 -12.545928 0.286166
-24.920950 81.882996 -11.967789 -0.082859
-22.444342 81.882996 -11.857058 -0.374234
-19.967734 81.882996 -12.267953 -0.177501
-17.491125 81.882996 -13.373686 -0.388482
-15.014517 81.882996 -13.610984 -0.760156
-12.537909 81.882996 -13.326350 -0.271024
-10.061301 81.882996 -13.199217 0.137514
-7.584693 81.882996 -13.426252 -0.121809
-5.108085 81.882996 -13.477517 0.471707
-2.631477 81.882996 -12.858623 0.340498
-0.154869 81.882996 -12.801579 -0.091854
2.321739 81.882996 -12.890340 -0.031045
4.798347 81.882996 -13.087596 0.106947
7.274955 81.882996 -13.064618 0.250104
9.751563 81.882996 -12.610738 -0.038925
12.228171 81.882996 -12.794316 0.210273
14.704779 81.882996 -13.164359 0.892164
17.181387 81.882996 -13.472781 0.956135
19.657995 81.882996 -13.460153 0.871870
22.134603 81.882996 -13.110134 0.600277
24.611211 81.882996 -12.925404 0.680683
27.087819 81.882996 -12.932895 0.509701
29.564427 81.882996 -12.793983 0.947753
32.041035 81.882996 -13.276612 1.356997
34.517643 81.882996 -13.480577 1.107090
36.994251 81.882996 -13.013805 1.136275
39.470859 81.882996 -12.426472 1.350861
41.947467 81.882996 -12.769186 1.230444
44.424075 81.882996 -12.851930 0.976263
46.900684 81.882996 -12.446542 1.490001
49.377292 81.882996 -12.423039 1.633692
51.853900 81.882996 -13.028619 1.007403
54.330508 81.882996 -13.038146 0.778544
56.807116 81.882996 -12.610918 1.334282
59.283724 81.882996 -12.458743 1.231243
61.760332 81.882996 -12.696465 0.902612
64.236940 81.882996 -12.510649 1.321272
66.713548 81.882996 -12.192968 1.481686
69.190156 81.882996 -12.475813 0.896802
71.666764 81.882996 -13.107617 0.480122
74.143372 81.882996 -12.845564 0.816141
76.619980 81.882996 -12.029434 1.174705
79.096588 81.882996 -12.287960 0.473252
81.573196 81.882996 -12.052341 0.429441
84.049804 81.882996 -11.839159 0.559821
86.526412 81.882996 -12.466938 1.227347
89.003020 81.882996 -12.586248 1.409505
91.479628 81.882996 -12.219237 0.953864
93.956236 81.882996 -11.767748 0.407233
96.432844 81.882996 -11.873705 1.030543
98.909452 81.882996 -11.174489 1.697091
101.386060 81.882996 -10.552632 1.265016
103.862668 81.882996 -10.567555 1.086852
106.339276 81.882996 -11.383357 1.193846
108.815884 81.882996 -11.922032 1.714713
111.292493 81.882996 -11.930898 1.485593
113.769101 81.882996 -11.595223 1.243086
116.245709 81.882996 -11.062233 0.998383
118.722317 81.882996 -10.961406 0.105060
121.198925 81.882996 -11.233630 0.608671
123.675533 81.882996 -11.536000 0.891078
126.152141 81.882996 -11.477851 0.661960
128.628749 81.882996 -11.863782 0.755039
131.105357 81.882996 -10.921327 0.260694
133.581965 81.882996 -10.243416 0.459119
136.058573 81.882996 -10.494884 0.906217
138.535181 81.882996 -10.976844 0.976617
141.011789 81.882996 -12.168002 0.535273
143.488397 81.882996 -11.813186 0.473297
-39.780598 79.406388 -12.110593 -1.110176
-37.303990 79.406388 -12.123092 -0.644673
-34.827382 79.406388 -12.483732 -0.155993
-32.350774 79.406388 -12.784553 -0.671270
-29.874166 79.406388 -13.115407 -0.674882
-27.397558 79.406388 -12.883035 -0.436264
-24.920950 79.406388 -12.708746 -0.391059
-22.444342 79.406388 -12.528870 -0.149196
-19.967734 79.406388 -12.626456 -0.966170
-17.491125 79.406388 -13.591259 -1.005206
-15.014517 79.406388 -13.263091 -0.489259
-12.537909 79.406388 -12.764389 -0.187850
-10.061301 79.406388 -12.897052 0.216876
-7.584693 79.406388 -12.993922 0.147801
-5.108085 79.406388 -13.274215 0.045548
-2.631477 79.406388 -13.059654 0.235386
-0.154869 79.406388 -13.213092 0.188423
2.321739 79.406388 -13.817646 0.414418
4.798347 79.406388 -13.208469 0.553144
7.274955 79.406388 -13.023771 0.499966
9.751563 79.406388 -12.816187 0.485978
12.228171 79.406388 -12.923955 0.380907
14.704779 79.406388 -13.168492 0.825241
17.181387 79.406388 -13.145109 1.142257
19.657995 79.406388 -13.075136 1.238150
22.134603 79.406388 -12.742297 0.898986
24.611211 79.406388 -12.608127 0.849734
27.087819 79.406388 -13.105940 0.641787
29.564427 79.406388 -12.868546 0.416489
32.041035 79.406388 -13.155876 1.140286
34.517643 79.406388 -13.548470 1.230320
36.994251 79.406388 -13.358953 1.069733
39.470859 79.406388 -12.819780 1.203269
41.947467 79.406388 -12.783991 1.234221
44.424075 79.406388 -13.031748 1.232105
46.900684 79.406388 -12.757289 1.212767
49.377292 79.406388 -12.700092 1.155650
51.853900 79.406388 -13.080007 0.744639
54.330508 79.406388 -13.144960 0.704277
56.807116 79.406388 -12.948697 1.066198
59.283724 79.406388 -12.581158 0.977706
61.760332 79.406388 -12.754082 0.942623
64.236940 79.406388 -12.446574 1.372962
66.713548 79.406388 -11.966913 1.325261
69.190156 79.406388 -11.717813 0.910894
71.666764 79.406388 -12.266032 0.983333
74.143372 79.406388 -12.410226 1.120621
76.619980 79.406388 -12.164843 1.269495
79.096588 79.406388 -12.275526 0.863952
81.573196 79.406388 -12.206774 0.808346
84.049804 79.406388 -12.188850 1.408126
86.526412 79.406388 -12.082692 1.387758
89.003020 79.406388 -12.265193 1.155054
91.479628 79.406388 -11.809279 1.288858
93.956236 79.406388 -11.517230 1.058738
96.432844 79.406388 -11.676799 0.941368
98.909452 79.406388 -11.669865 1.178641
101.386060 79.406388 -11.326798 1.319735
103.862668 79.406388 -11.129481 1.399404
106.339276 79.406388 -11.796824 1.104045
108.815884 79.406388 -12.028226 1.146494
111.292493 79.406388 -11.663189 1.474007
113.769101 79.406388 -11.566100 1.294949
116.245709 79.406388 -11.061136 1.249267
118.722317 79.406388 -8.682681 0.813949
121.198925 79.406388 -11.006106 0.823964
123.675533 79.406388 -11.479064 0.766064
126.152141 79.406388 -11.547184 0.538412
128.628749 79.406388 -11.789534 0.265061
131.105357 79.406388 -10.966366 -0.097596
133.581965 79.406388 -9.881740 0.541757
136.058573 79.406388 -10.035880 0.861849
138.535181 79.406388 -10.650836 0.877687
141.011789 79.406388 -11.404725 0.482770
143.488397 79.406388 -11.293237 0.616256
-39.780598 76.929780 -12.158420 -0.719975
-37.303990 76.929780 -12.244237 -0.589933
-34.827382 76.929780 -12.396281 -0.396766
-32.350774 76.929780 -13.634683 -0.543382
-29.874166 76.929780 -13.594757 -0.016937
-27.397558 76.929780 -13.272504 0.121902
-24.920950 76.929780 -13.109351 -0.223670
-22.444342 76.929780 -13.417400 0.046006
-19.967734 76.929780 -13.270910 -0.731674
-17.491125 76.929780 -13.459553 -1.152326
-15.014517 76.929780 -13.244009 -0.592221
-12.537909 76.929780 -12.551366 -0.416972
-10.061301 76.929780 -12.506059 0.183000
-7.584693 76.929780 -12.767448 0.293829
-5.108085 76.929780 -13.072989 -0.443631
-2.631477 76.929780 -13.300734 -0.080296
-0.154869 76.929780 -13.511514 0.030622
2.321739 76.929780 -13.935570 0.088713
4.798347 76.929780 -13.347680 0.671162
7.274955 76.929780 -13.167172 0.704880
9.751563 76.929780 -13.450885 0.404916
12.228171 76.929780 -13.078343 0.304009
14.704779 76.929780 -12.880276 0.735159
17.181387 76.929780 -13.033090 0.983447
19.657995 76.929780 -13.015314 1.487205
22.134603 76.929780 -12.909291 1.454249
24.611211 76.929780 -12.950470 1.041683
27.087819 76.929780 -13.134966 0.813147
29.564427 76.929780 -12.921275 0.202420
32.041035 76.929780 -12.972517 0.366488
34.517643 76.929780 -13.051693 1.087324
36.994251 76.929780 -13.102236 1.275417
39.470859 76.929780 -12.914466 1.334529
41.947467 76.929780 -12.853457 1.294818
44.424075 76.929780 -13.105774 1.257836
46.900684 76.929780 -12.818801 1.119067
49.377292 76.929780 -13.214036 1.296778
51.853900 76.929780 -12.941385 1.196106
54.330508 76.929780 -13.027673 1.001128
56.807116 76.929780 -12.850083 1.161036
59.283724 76.929780 -12.841107 0.874747
61.760332 76.929780 -13.094209 0.882985
64.236940 76.929780 -12.772112 1.355340
66.713548 76.929780 -12.308925 1.065246
69.190156 76.929780 -12.024998 0.737069
71.666764 76.929780 -12.133553 1.105291
74.143372 76.929780 -12.347646 1.001415
76.619980 76.929780 -12.276721 0.942665
79.096588 76.929780 -12.417132 0.896525
81.573196 76.929780 -12.523995 1.045358
84.049804 76.929780 -12.584809 1.562862
86.526412 76.929780 -11.969984 1.326739
89.003020 76.929780 -11.997536 1.210714
91.479628 76.929780 -11.381889 1.457496
93.956236 76.929780 -11.284485 1.374773
96.432844 76.929780 -11.419037 1.129009
98.909452 76.929780 -11.472925 0.905118
101.386060 76.929780 -11.433302 1.090878
103.862668 76.929780 -10.740461 1.520348
106.339276 76.929780 -11.573782 1.405104
108.815884 76.929780 -11.743799 1.148660
111.292493 76.929780 -11.019828 1.037691
113.769101 76.929780 -11.287989 1.282657
116.245709 76.929780 -11.313077 1.803395
118.722317 76.929780 -8.436403 1.335065
121.198925 76.929780 -10.963369 0.581310
123.675533 76.929780 -11.471841 0.940712
126.152141 76.929780 -10.756199 0.874956
128.628749 76.929780 -11.436610 1.089408
131.105357 76.929780 -11.288005 1.166714
133.581965 76.929780 -10.202812 1.039055
136.058573 76.929780 -10.712541 1.121251
138.535181 76.929780 -11.082815 1.584244
141.011789 76.929780 -10.741608 1.489003
143.488397 76.929780 -10.324311 1.527128
-39.780598 74.453172 -12.745550 0.092626
-37.303990 74.453172 -12.642949 0.047560
-34.827382 74.453172 -12.418007 0.349800
-32.350774 74.453172 -13.074276 0.082917
-29.874166 74.453172 -12.808753 -0.168767
-27.397558 74.453172 -12.954339 -0.011831
-24.920950 74.453172 -12.955194 -0.349246
-22.444342 74.453172 -13.173971 -0.309963
-19.967734 74.453172 -12.862487 -0.132377
-17.491125 74.453172 -12.946153 -0.194395
-15.014517 74.453172 -13.580473 -0.477927
-12.537909 74.453172 -12.706160 -0.421750
-10.061301 74.453172 -12.474672 0.107419
-7.584693 74.453172 -13.186714 -0.285437
-5.108085 74.453172 -13.301913 -0.297397
-2.631477 74.453172 -13.490771 0.262349
-0.154869 74.453172 -13.532133 -0.008181
2.321739 74.453172 -13.460812 -0.294296
4.798347 74.453172 -13.437339 0.252780
7.274955 74.453172 -13.135424 0.348200
9.751563 74.453172 -13.207080 0.289258
12.228171 74.453172 -13.350680 0.549417
14.704779 74.453172 -13.204052 0.823230
17.181387 74.453172 -13.193545 0.948902
19.657995 74.453172 -13.338467 1.072699
22.134603 74.453172 -13.504510 0.867763
24.611211 74.453172 -13.414811 1.076501
27.087819 74.453172 -12.966248 1.063488
29.564427 74.453172 -12.736459 0.665295
32.041035 74.453172 -12.850363 0.640579
34.517643 74.453172 -12.800909 0.965078
36.994251 74.453172 -12.641102 1.349703
39.470859 74.453172 -12.627434 1.529267
41.947467 74.453172 -12.839293 1.049501
44.424075 74.453172 -12.947332 0.848244
46.900684 74.453172 -12.790830 0.943829
49.377292 74.453172 -12.958050 1.304088
51.853900 74.453172 -12.799659 1.490797
54.330508 74.453172 -13.020411 1.019823
56.807116 74.453172 -12.974483 1.061994
59.283724 74.453172 -12.847461 1.318443
61.760332 74.453172 -12.978200 1.271278
64.236940 74.453172 -12.804306 1.447068
66.713548 74.453172 -13.021513 1.323993
69.190156 74.453172 -12.799958 1.196773
71.666764 74.453172 -12.543002 1.489460
74.143372 74.453172 -12.613209 1.064691
76.619980 74.453172 -12.657474 0.566287
79.096588 74.453172 -12.774998 1.152581
81.573196 74.453172 -12.527319 1.743888
84.049804 74.453172 -12.477652 1.455183
86.526412 74.453172 -12.392591 1.486010
89.003020 74.453172 -12.289408 1.752345
91.479628 74.453172 -11.613142 1.807366
93.956236 74.453172 -11.337400 1.507269
96.432844 74.453172 -11.684341 1.170835
98.909452 74.453172 -11.117396 1.147152
101.386060 74.453172 -11.156600 1.396938
103.862668 74.453172 -10.498365 1.512685
106.339276 74.453172 -11.023411 1.806307
108.815884 74.453172 -11.468875 1.548133
111.292493 74.453172 -11.166749 0.861412
113.769101 74.453172 -11.169320 1.255947
116.245709 74.453172 -11.517684 1.747567
118.722317 74.453172 -9.838510 1.277523
121.198925 74.453172 -10.847696 0.735123
123.675533 74.453172 -11.047052 1.052102
126.152141 74.453172 -10.860553 1.138179
128.628749 74.453172 -11.333631 0.691179
131.105357 74.453172 -11.045943 0.775362
133.581965 74.453172 -10.679597 1.067059
136.058573 74.453172 -11.017541 1.142891
138.535181 74.453172 -11.373594 1.729405
141.011789 74.453172 -10.920938 1.710521
143.488397 74.453172 -10.192329 1.104961
-39.780598 71.976564 -12.489076 1.017723
-37.303990 71.976564 -12.846719 0.275803
-34.827382 71.976564 -12.534021 -0.079220
-32.350774 71.976564 -12.421053 -0.282191
-29.874166 71.976564 -12.606838 -0.890851
-27.397558 71.976564 -12.467540 -0.582205
-24.920950 71.976564 -12.364574 -0.076432
-22.444342 71.976564 -12.507666 -0.237770
-19.967734 71.976564 -12.273924 -0.476542
-17.491125 71.976564 -12.737920 -0.162389
-15.014517 71.976564 -13.725807 0.036346
-12.537909 71.976564 -13.009721 -0.001658
-10.061301 71.976564 -12.650725 0.111024
-7.584693 71.976564 -13.401551 0.170067
-5.108085 71.976564 -13.161336 0.163613
-2.631477 71.976564 -13.144327 0.428460
-0.154869 71.976564 -13.266119 0.040052
2.321739 71.976564 -13.508546 0.117970
4.798347 71.976564 -13.354276 0.618125
7.274955 71.976564 -13.175941 0.631804
9.751563 71.976564 -13.184735 0.741193
12.228171 71.976564 -13.529280 0.686930
14.704779 71.976564 -13.707817 0.714132
17.181387 71.976564 -13.291153 0.583958
19.657995 71.976564 -13.212522 0.531584
22.134603 71.976564 -13.497064 1.017664
24.611211 71.976564 -13.506522 1.618753
27.087819 71.976564 -13.304009 1.611558
29.564427 71.976564 -12.950230 1.359175
32.041035 71.976564 -13.207794 1.255934
34.517643 71.976564 -13.299364 1.382876
36.994251 71.976564 -12.796790 1.443179
39.470859 71.976564 -12.328599 1.494794
41.947467 71.976564 -12.520475 1.120005
44.424075 71.976564 -13.002578 0.855450
46.900684 71.976564 -12.877348 0.976377
49.377292 71.976564 -12.659691 1.203476
51.853900 71.976564 -13.089248 1.702010
54.330508 71.976564 -13.260582 1.525616
56.807116 71.976564 -13.173992 1.347262
59.283724 71.976564 -12.946159 1.670770
61.760332 71.976564 -12.905861 1.662797
64.236940 71.976564 -12.846615 1.526872
66.713548 71.976564 -12.906016 1.485065
69.190156 71.976564 -12.681011 1.729911
71.666764 71.976564 -12.599130 2.230034
74.143372 71.976564 -12.613481 1.620669
76.619980 71.976564 -12.719121 0.594998
79.096588 71.976564 -12.670037 1.210493
81.573196 71.976564 -12.277432 2.042363
84.049804 71.976564 -12.349444 2.115411
86.526412 71.976564 -12.770142 1.945710
89.003020 71.976564 -12.522687 1.648935
91.479628 71.976564 -11.805580 1.692405
93.956236 71.976564 -11.110972 2.097767
96.432844 71.976564 -11.948214 1.659043
98.909452 71.976564 -11.406841 1.636845
101.386060 71.976564 -11.194269 1.604641
103.862668 71.976564 -11.278997 0.802250
106.339276 71.976564 -11.189379 1.642237
108.815884 71.976564 -11.332006 1.645135
111.292493 71.976564 -11.289187 1.011849
113.769101 71.976564 -11.301888 0.946362
116.245709 71.976564 -11.755370 1.280708
118.722317 71.976564 -11.024780 1.310944
121.198925 71.976564 -11.089916 0.613857
123.675533 71.976564 -11.619817 1.241570
126.152141 71.976564 -11.744315 1.577534
128.628749 71.976564 -11.282139 0.442299
131.105357 71.976564 -10.267560 0.118189
133.581965 71.976564 -10.006442 0.836681
136.058573 71.976564 -10.075222 0.690649
138.535181 71.976564 -10.864039 0.993402
141.011789 71.976564 -11.078209 1.221213
143.488397 71.976564 -10.248714 0.530473
-39.780598 69.499956 -12.239702 0.897347
-37.303990 69.499956 -12.572001 0.533360
-34.827382 69.499956 -12.560028 0.347829
-32.350774 69.499956 -12.344367 -0.264797
-29.874166 69.499956 -12.992182 -1.339584
-27.397558 69.499956 -13.013859 -1.099929
-24.920950 69.499956 -12.730513 -0.283454
-22.444342 69.499956 -13.252112 -0.152258
-19.967734 69.499956 -13.488126 -0.767642
-17.491125 69.499956 -13.207467 -0.572028
-15.014517 69.499956 -13.294860 0.391824
-12.537909 69.499956 -13.236691 0.327088
-10.061301 69.499956 -12.936515 0.031544
-7.584693 69.499956 -13.402561 0.346084
-5.108085 69.499956 -12.889679 0.056899
-2.631477 69.499956 -12.856449 0.396278
-0.154869 69.499956 -13.679424 0.483751
2.321739 69.499956 -13.587684 0.595321
4.798347 69.499956 -13.485541 0.922166
7.274955 69.499956 -13.604451 1.242710
9.751563 69.499956 -13.736163 1.275747
12.228171 69.499956 -13.643947 1.042742
14.704779 69.499956 -13.630599 1.152328
17.181387 69.499956 -13.388368 0.784065
19.657995 69.499956 -12.911295 0.500484
22.134603 69.499956 -13.192815 0.719877
24.611211 69.499956 -13.390318 1.355526
27.087819 69.499956 -13.373939 1.705665
29.564427 69.499956 -13.197639 1.507855
32.041035 69.499956 -13.425909 0.978087
34.517643 69.499956 -13.220954 1.027284
36.994251 69.499956 -12.953707 1.334636
39.470859 69.499956 -12.735416 1.390999
41.947467 69.499956 -12.910557 1.409271
44.424075 69.499956 -13.280316 1.540482
46.900684 69.499956 -12.994830 1.574021
49.377292 69.499956 -12.823676 1.348991
51.853900 69.499956 -13.063571 1.806328
54.330508 69.499956 -12.896564 1.761595
56.807116 69.499956 -12.800761 1.456547
59.283724 69.499956 -12.945111 1.350405
61.760332 69.499956 -13.030304 1.612782
64.236940 69.499956 -12.800452 1.987448
66.713548 69.499956 -12.677826 1.899980
69.190156 69.499956 -12.873206 1.678285
71.666764 69.499956 -13.020605 1.772000
74.143372 69.499956 -12.680097 1.579686
76.619980 69.499956 -12.432291 1.171733
79.096588 69.499956 -12.427894 1.794689
81.573196 69.499956 -12.063884 2.185114
84.049804 69.499956 -12.149970 1.908597
86.526412 69.499956 -12.603637 1.997894
89.003020 69.499956 -12.393139 1.734802
91.479628 69.499956 -11.945806 1.396332
93.956236 69.499956 -10.995825 1.868574
96.432844 69.499956 -11.635085 1.727835
98.909452 69.499956 -11.658913 1.537319
101.386060 69.499956 -11.529322 1.450250
103.862668 69.499956 -11.686531 0.990279
106.339276 69.499956 -11.301861 1.098217
108.815884 69.499956 -11.503492 1.337883
111.292493 69.499956 -11.352757 1.300041
113.769101 69.499956 -11.345832 1.338491
116.245709 69.499956 -11.540801 1.468007
118.722317 69.499956 -10.937325 1.066433
121.198925 69.499956 -11.228999 0.232936
123.675533 69.499956 -11.622495 0.768556
126.152141 69.499956 -11.354909 1.313904
128.628749 69.499956 -11.049784 1.363568
131.105357 69.499956 -10.715179 1.446206
133.581965 69.499956 -10.357003 1.329156
136.058573 69.499956 -10.471471 1.295814
138.535181 69.499956 -11.063339 1.230644
141.011789 69.499956 -11.158602 1.137789
143.488397 69.499956 -11.077213 0.546092
-39.780598 67.023347 -13.130846 -0.746088
-37.303990 67.023347 -12.585439 -1.168803
-34.827382 67.023347 -12.497016 -0.198017
-32.350774 67.023347 -12.630756 -0.264955
-29.874166 67.023347 -12.895655 -0.763103
-27.397558 67.023347 -12.849935 -1.037976
-24.920950 67.023347 -13.377868 -0.574917
-22.444342 67.023347 -13.509727 0.174659
-19.967734 67.023347 -13.437112 -0.656830
-17.491125 67.023347 -13.468112 -0.731755
-15.014517 67.023347 -13.197056 -0.018829
-12.537909 67.023347 -12.872640 0.188503
-10.061301 67.023347 -13.275945 0.093606
-7.584693 67.023347 -13.605472 0.137367
-5.108085 67.023347 -13.644076 0.062843
-2.631477 67.023347 -13.378222 0.417722
-0.154869 67.023347 -13.539751 0.685335
2.321739 67.023347 -12.976564 0.900407
4.798347 67.023347 -13.238406 1.009108
7.274955 67.023347 -12.991376 1.006151
9.751563 67.023347 -13.161152 1.200697
12.228171 67.023347 -13.765492 1.068884
14.704779 67.023347 -13.567607 1.283826
17.181387 67.023347 -13.088414 1.230081
19.657995 67.023347 -12.884489 0.895582
22.134603 67.023347 -12.876204 0.627486
24.611211 67.023347 -12.888192 0.994478
27.087819 67.023347 -13.044930 1.371138
29.564427 67.023347 -12.893258 1.223631
32.041035 67.023347 -13.271409 1.267298
34.517643 67.023347 -13.001076 1.195993
36.994251 67.023347 -12.946931 1.348090
39.470859 67.023347 -13.085147 1.424140
41.947467 67.023347 -13.279738 1.491766
44.424075 67.023347 -13.372259 1.661031
46.900684 67.023347 -12.804907 1.648583
49.377292 67.023347 -12.853848 1.467371
51.853900 67.023347 -13.049758 1.607894
54.330508 67.023347 -12.522064 1.536955
56.807116 67.023347 -12.610225 1.616715
59.283724 67.023347 -12.980399 1.749892
61.760332 67.023347 -12.743448 2.006667
64.236940 67.023347 -12.459048 2.237715
66.713548 67.023347 -12.903036 1.721831
69.190156 67.023347 -12.835077 1.608531
71.666764 67.023347 -12.666146 1.719875
74.143372 67.023347 -12.507859 1.971667
76.619980 67.023347 -12.617141 2.123917
79.096588 67.023347 -12.777416 1.778518
81.573196 67.023347 -12.287219 1.655166
84.049804 67.023347 -11.851866 1.727868
86.526412 67.023347 -12.033960 2.032110
89.003020 67.023347 -12.067542 2.316120
91.479628 67.023347 -12.203443 2.247288
93.956236 67.023347 -11.688651 1.750488
96.432844 67.023347 -11.464759 0.938276
98.909452 67.023347 -12.066922 1.035266
101.386060 67.023347 -12.088480 1.101779
103.862668 67.023347 -12.087650 1.246790
106.339276 67.023347 -11.522443 1.341376
108.815884 67.023347 -11.622218 1.664138
111.292493 67.023347 -11.411570 1.669706
113.769101 67.023347 -11.230068 1.422388
116.245709 67.023347 -11.254871 1.371225
118.722317 67.023347 -10.917748 1.024673
121.198925 67.023347 -10.944780 0.345453
123.675533 67.023347 -10.902343 0.654195
126.152141 67.023347 -10.879336 1.161963
128.628749 67.023347 -11.086063 1.478935
131.105357 67.023347 -11.504721 1.834002
133.581965 67.023347 -11.408498 2.023760
136.058573 67.023347 -11.087265 1.988325
138.535181 67.023347 -11.056507 1.664925
141.011789 67.023347 -10.779630 1.291773
143.488397 67.023347 -11.184902 1.106618
-39.780598 64.546739 -13.127710 -1.525087
-37.303990 64.546739 -12.279924 -1.732673
-34.827382 64.546739 -12.159402 -0.595466
-32.350774 64.546739 -12.747992 -0.705099
-29.874166 64.546739 -12.764546 -1.113377
-27.397558 64.546739 -12.715116 -0.971097
-24.920950 64.546739 -13.369469 -0.778862
-22.444342 64.546739 -12.941475 -0.547271
-19.967734 64.546739 -12.614649 -1.256966
-17.491125 64.546739 -13.589901 -1.080702
-15.014517 64.546739 -13.840777 -0.170284
-12.537909 64.546739 -13.338500 0.501142
-10.061301 64.546739 -13.536974 0.866069
-7.584693 64.546739 -13.431350 0.403516
-5.108085 64.546739 -13.447068 -0.070941
-2.631477 64.546739 -13.115855 0.341246
-0.154869 64.546739 -12.877939 0.928019
2.321739 64.546739 -12.958893 1.380711
4.798347 64.546739 -13.113951 1.161214
7.274955 64.546739 -12.389524 0.767593
9.751563 64.546739 -12.780961 0.950034
12.228171 64.546739 -13.340637 0.841532
14.704779 64.546739 -13.223559 0.826627
17.181387 64.546739 -13.118652 0.951076
19.657995 64.546739 -12.903942 1.517364
22.134603 64.546739 -12.731556 1.552832
24.611211 64.546739 -12.803996 1.658667
27.087819 64.546739 -12.974193 1.374388
29.564427 64.546739 -13.143620 0.684478
32.041035 64.546739 -13.361788 1.158182
34.517643 64.546739 -13.103731 1.611808
36.994251 64.546739 -12.988049 1.650728
39.470859 64.546739 -13.217383 1.253394
41.947467 64.546739 -13.401528 1.289452
44.424075 64.546739 -13.289111 1.658778
46.900684 64.546739 -12.624562 1.741313
49.377292 64.546739 -12.902875 1.555708
51.853900 64.546739 -13.105527 1.488911
54.330508 64.546739 -13.257605 1.421218
56.807116 64.546739 -13.240378 1.919472
59.283724 64.546739 -12.774115 2.319442
61.760332 64.546739 -12.533086 2.332553
64.236940 64.546739 -12.575859 2.272934
66.713548 64.546739 -12.870753 1.926462
69.190156 64.546739 -12.659076 1.710788
71.666764 64.546739 -12.532075 1.409708
74.143372 64.546739 -12.722694 2.215433
76.619980 64.546739 -12.443424 2.695307
79.096588 64.546739 -12.554497 1.932468
81.573196 64.546739 -12.578912 1.564930
84.049804 64.546739 -12.571613 1.985427
86.526412 64.546739 -12.209494 1.972379
89.003020 64.546739 -11.959288 2.182751
91.479628 64.546739 -12.046479 2.205716
93.956236 64.546739 -11.809632 1.332663
96.432844 64.546739 -11.635925 0.784415
98.909452 64.546739 -11.799604 1.364305
101.386060 64.546739 -11.862572 1.188312
103.862668 64.546739 -11.547819 1.054231
106.339276 64.546739 -11.904578 1.502685
108.815884 64.546739 -11.884313 1.674525
111.292493 64.546739 -11.553279 1.618469
113.769101 64.546739 -11.633969 1.385590
116.245709 64.546739 -11.303864 1.405385
118.722317 64.546739 -11.242782 1.083317
121.198925 64.546739 -11.137227 0.627959
123.675533 64.546739 -11.246365 1.082198
126.152141 64.546739 -11.490375 1.467430
128.628749 64.546739 -11.347141 1.526877
131.105357 64.546739 -11.386182 1.194750
133.581965 64.546739 -11.417389 1.300703
136.058573 64.546739 -10.549093 1.864176
138.535181 64.546739 -10.263818 1.627218
141.011789 64.546739 -10.420705 1.597428
143.488397 64.546739 -10.897506 1.959658
-39.780598 62.070131 -11.438659 -0.822988
-37.303990 62.070131 -12.068106 -0.102866
-34.827382 62.070131 -12.396280 -0.048983
-32.350774 62.070131 -12.577074 -0.778486
-29.874166 62.070131 -12.759275 -1.239489
-27.397558 62.070131 -12.770154 -2.089916
-24.920950 62.070131 -13.256670 -1.813748
-22.444342 62.070131 -13.515432 -1.482492
-19.967734 62.070131 -13.513042 -1.817050
-17.491125 62.070131 -13.746873 -0.832170
-15.014517 62.070131 -13.902664 0.656431
-12.537909 62.070131 -13.589035 0.968647
-10.061301 62.070131 -13.533615 0.483601
-7.584693 62.070131 -13.556313 0.397058
-5.108085 62.070131 -13.910112 0.119443
-2.631477 62.070131 -13.188348 0.169003
-0.154869 62.070131 -12.740376 0.451353
2.321739 62.070131 -13.493639 0.639020
4.798347 62.070131 -13.080826 1.834510
7.274955 62.070131 -12.964880 1.763519
9.751563 62.070131 -12.989934 0.875498
12.228171 62.070131 -13.017406 1.002060
14.704779 62.070131 -13.136381 1.287248
17.181387 62.070131 -13.182202 1.118051
19.657995 62.070131 -12.685111 1.388527
22.134603 62.070131 -13.085495 1.858296
24.611211 62.070131 -13.050476 1.900816
27.087819 62.070131 -12.911724 1.163407
29.564427 62.070131 -12.964109 0.729411
32.041035 62.070131 -13.156575 1.367957
34.517643 62.070131 -13.061411 1.864335
36.994251 62.070131 -12.926399 1.738192
39.470859 62.070131 -13.094942 1.370853
41.947467 62.070131 -13.369107 1.486934
44.424075 62.070131 -13.118868 1.533303
46.900684 62.070131 -13.184600 1.615043
49.377292 62.070131 -13.202074 1.579291
51.853900 62.070131 -13.144720 1.573032
54.330508 62.070131 -13.228254 1.661108
56.807116 62.070131 -13.094127 1.950760
59.283724 62.070131 -12.695559 2.459042
61.760332 62.070131 -12.683858 2.598066
64.236940 62.070131 -12.774103 2.465632
66.713548 62.070131 -12.692337 2.393785
69.190156 62.070131 -12.717507 1.930290
71.666764 62.070131 -12.775325 1.619073
74.143372 62.070131 -12.919446 2.435078
76.619980 62.070131 -12.134858 2.417506
79.096588 62.070131 -12.130725 2.093229
81.573196 62.070131 -12.447067 2.087638
84.049804 62.070131 -12.635389 2.160725
86.526412 62.070131 -12.224501 2.229403
89.003020 62.070131 -11.724165 2.149808
91.479628 62.070131 -11.426346 1.883606
93.956236 62.070131 -10.859858 1.682119
96.432844 62.070131 -10.939856 1.614129
98.909452 62.070131 -11.556831 1.881936
101.386060 62.070131 -11.741544 1.532453
103.862668 62.070131 -11.107720 1.292412
106.339276 62.070131 -11.940800 1.677474
108.815884 62.070131 -12.326606 1.970644
111.292493 62.070131 -11.889842 1.697015
113.769101 62.070131 -11.453115 1.275836
116.245709 62.070131 -10.994213 1.512716
118.722317 62.070131 -10.966078 1.121616
121.198925 62.070131 -11.638075 0.649161
123.675533 62.070131 -12.041964 1.477175
126.152141 62.070131 -11.763132 1.541838
128.628749 62.070131 -11.525472 1.111510
131.105357 62.070131 -11.027539 0.928632
133.581965 62.070131 -10.859048 0.855629
136.058573 62.070131 -10.405489 0.914223
138.535181 62.070131 -10.784014 0.471367
141.011789 62.070131 -10.996927 0.860112
143.488397 62.070131 -11.311579 1.632084
-39.780598 59.593523 -10.462670 -0.572869
-37.303990 59.593523 -12.387612 0.341196
-34.827382 59.593523 -13.206909 -0.057326
-32.350774 59.593523 -12.771135 -1.133809
-29.874166 59.593523 -12.508464 -1.736746
-27.397558 59.593523 -12.517522 -2.210990
-24.920950 59.593523 -13.822896 -2.394566
-22.444342 59.593523 -14.377346 -1.961157
-19.967734 59.593523 -14.020380 -0.922499
-17.491125 59.593523 -13.512933 -0.140300
-15.014517 59.593523 -13.281339 0.499218
-12.537909 59.593523 -13.318246 1.430804
-10.061301 59.593523 -13.568699 0.577795
-7.584693 59.593523 -14.074347 0.426905
-5.108085 59.593523 -14.330400 0.439945
-2.631477 59.593523 -13.375759 0.249517
-0.154869 59.593523 -12.923111 0.518634
2.321739 59.593523 -13.685679 1.281853
4.798347 59.593523 -13.484553 2.162488
7.274955 59.593523 -13.253764 1.982613
9.751563 59.593523 -12.968789 1.421177
12.228171 59.593523 -13.308146 1.211280
14.704779 59.593523 -13.341621 1.650732
17.181387 59.593523 -13.048136 1.830718
19.657995 59.593523 -12.615271 1.688878
22.134603 59.593523 -13.037440 1.664158
24.611211 59.593523 -12.685565 1.705588
27.087819 59.593523 -12.949068 1.480226
29.564427 59.593523 -12.923435 1.444273
32.041035 59.593523 -13.286749 1.974823
34.517643 59.593523 -13.287428 2.015953
36.994251 59.593523 -12.949955 1.357845
39.470859 59.593523 -13.055111 1.240963
41.947467 59.593523 -13.486895 1.708017
44.424075 59.593523 -13.286914 1.772710
46.900684 59.593523 -13.449248 1.656974
49.377292 59.593523 -13.340647 1.962425
51.853900 59.593523 -13.186134 2.011609
54.330508 59.593523 -12.898512 1.812278
56.807116 59.593523 -13.071446 1.918926
59.283724 59.593523 -13.280201 2.082421
61.760332 59.593523 -12.967611 2.608266
64.236940 59.593523 -12.693680 2.923964
66.713548 59.593523 -12.317831 2.568287
69.190156 59.593523 -12.735573 2.130401
71.666764 59.593523 -12.734895 2.134822
74.143372 59.593523 -12.698952 2.244798
76.619980 59.593523 -12.560181 2.104609
79.096588 59.593523 -12.292427 2.283279
81.573196 59.593523 -12.477128 2.535376
84.049804 59.593523 -12.153159 2.541406
86.526412 59.593523 -11.782915 2.474830
89.003020 59.593523 -11.504015 2.555747
91.479628 59.593523 -11.397518 2.504076
93.956236 59.593523 -11.057672 2.250183
96.432844 59.593523 -10.470559 2.217642
98.909452 59.593523 -11.652965 1.804536
101.386060 59.593523 -11.314010 1.324036
103.862668 59.593523 -10.773392 1.398617
106.339276 59.593523 -10.515373 2.487831
108.815884 59.593523 -12.231279 2.337259
111.292493 59.593523 -11.907435 1.879701
113.769101 59.593523 -11.424182 1.803242